 +-------------------------------------------------+
 |                                                 |
 |      CCC   AA    SSS  TTTTT  EEEEE  PPPP        |
 |     C     A  A  S       T    E      P   P       |
 |     C     AAAA   SS     T    EEE    PPPP        |
 |     C     A  A     S    T    E      P           |
 |      CCC  A  A  SSS     T    EEEEE  P           |
 |                                                 |
 +-------------------------------------------------+
 |                                                 |
 | Welcome to Academic Release CASTEP version 20.11|          
 | Ab Initio Total Energy Program                  |
 |                                                 |
 | Authors:                                        |
 | M. Segall, M. Probert, C. Pickard, P. Hasnip,   |
 | S. Clark, K. Refson, J. R. Yates, M. Payne      |
 |                                                 |
 | Contributors:                                   |
 | P. Lindan, P. Haynes, J. White, V. Milman,      |
 | N. Govind, M. Gibson, P. Tulip, V. Cocula,      |
 | B. Montanari, D. Quigley, M. Glover,            |
 | L. Bernasconi, A. Perlov, M. Plummer,           |
 | E. McNellis, J. Meyer, J. Gale, D. Jochym       |
 | J. Aarons, B. Walker, R. Gillen, D. Jones       |
 | T. Green, I. J. Bush, C. J. Armstrong,          |
 | E. J. Higgins, E. L. Brown, M. S. McFly,        |
 | J. Wilkins, B-C. Shih, P. J. P. Byrne,          |
 | R. J. Maurer, J. C. Womack, J. Dziedzic,        |
 | J. R. Kermode, A. Bartok-Partay                 |
 |                                                 |
 | Copyright (c) 2000 - 2020                       |
 |                                                 |
 |     Distributed under license from Cambridge    |
 |     Enterprise for academic use only.           |
 |                                                 |
 | Please cite                                     |
 |                                                 |
 |     "First principles methods using CASTEP"     |
 |                                                 |
 |         Zeitschrift fuer Kristallographie       |
 |           220(5-6) pp. 567-570 (2005)           |
 |                                                 |
 | S. J. Clark, M. D. Segall, C. J. Pickard,       |
 | P. J. Hasnip, M. J. Probert, K. Refson,         |
 | M. C. Payne                                     |
 |                                                 |
 |       in all publications arising from          |
 |              your use of CASTEP                 |
 |                                                 |
 +-------------------------------------------------+
 |                                                 |
 |              http://www.castep.org              |
 |                                                 |
 +-------------------------------------------------+
 
 
 
 Compiled for linux_x86_64_ifort on Fri, 22 Oct 2021 12:44:39 +0100
 from code version Version unavailable
 Compiler: Intel Fortran 19.1.0.166; Optimisation: fast
 MATHLIBS: Intel MKL(2020.0.0) (LAPACK version 3.7.0)
 FFT Lib : mkl
 Fundamental constants values: CODATA 2014
 
 Run started: Tue, 14 Jun 2022 20:20:00 +0100

 ******************************* User Parameters *******************************
iprint        : 2              # verbosity control (I)
task          : magres         # type of calculation (S)
optstrategy   : speed          # optimization strategy (S)
xcfunctional  : PBESOL         # exchange-correlation functional (S)
cutoffenergy  : 900.0000000 ev # maximum energy of planewaves in basis set (P)
charge        : 1.0000000      # net charge (R)
numdumpcycles : 0              # frequency of wavefunction dumps (I)
magrestask    : EFG            # MAGRES run type (S)

 *******************************************************************************
  
 +-------------------------------------------------+
 |                                                 |
 |           N   N    M   M    RRRR                |
 |           NN  N    MM MM    R   R               |
 |           N N N    M M M    RRRR                |
 |           N  NN    M   M    R  R                |
 |           N   N    M   M    R   R               |
 |                                                 |
 +-------------------------------------------------+
 |                                                 |
 | Welcome to Materials Studio CASTEP-NMR          |
 |                                                 |
 | Authors:                                        |
 | J.R. Yates, C.J. Pickard, F. Mauri              |
 |                                                 |
 | Contributors:                                   |
 | T.F.G. Green, S.A. Joyce, R.T. Strong,          |
 | B-C. Shih                                       |
 |                                                 |
 | Copyright (c) 2004 - 2020                       |
 |                                                 |
 | Please cite the appropriate publications in all |
 | work arising from your use of CASTEP NMR.       |
 |                                                 |
 | For NMR Shielding Tensors cite:                 |
 |    "All-electron magnetic response with         |
 |    pseudopotentials: NMR chemical shifts",      |
 |    C. J. Pickard, F. Mauri;                     |
 |    Physical Review B63 245101 (2001), and       |
 |                                                 |
 |    "Calculation of NMR Chemical Shifts          |
 |    for extended systems using                   |
 |    Ultrasoft Pseudopotentials",                 |
 |    J. R. Yates, C. J. Pickard and F. Mauri      |
 |    Physical Review B76 024401 (2007)            |
 |                                                 |
 | For Electric Field Gradients cite:              |
 |   "Accurate First Principles Prediction of 17O  |
 |    NMR Parameters in SiO2: Assignment of the    |
 |    Zeolite Ferrierite Spectrum"                 |
 |    M. Profeta, F. Mauri and C. J. Pickard       |
 |    J. Amer. Chem. Soc. 125 541 (2003)           |
 |                                                 |
 | For Spin-Spin (J) Couplings cite:               |
 |   "A first principles theory of NMR J-coupling  |
 |   in solid-state systems"                       |
 |   S.A. Joyce, J.R. Yates, C.J. Pickard, F. Mauri|
 |   J. Chem. Phys. 127 204107 (2007)              |
 |                                                 |
 |   "Relativistic NMR J-coupling with ultrasoft   |
 |   pseudopotentials and the zeroth-order regular |
 |   approximation"                                |
 |   T.F.G. Green and J.R. Yates                   |
 |   J. Chem. Phys. 140 234106 (2014)              |
 |                                                 |
 +-------------------------------------------------+
 
 
 Atomic calculation performed for Li: 1s2 2s1
 
 Converged in 48 iterations to an ae energy of -201.033 eV
 
   ============================================================                
   | Pseudopotential Report - Date of generation 14-06-2022   |                
   ------------------------------------------------------------                
   | Element: Li Ionic charge:  3.00 Level of theory: PBESOL  |                
   | Atomic Solver: Koelling-Harmon                           |                
   |                                                          |                
   |               Reference Electronic Structure             |                
   |         Orbital         Occupation         Energy        |                
   |            1s              2.000           -1.888        |                
   |            2s              1.000           -0.104        |                
   |                                                          |                
   |                 Pseudopotential Definition               |                
   |        Beta     l      e      Rc     scheme   norm       |                
   |          1      0   -1.888   1.001     qc      0         |                
   |          2      0   -0.104   1.001     qc      0         |                
   |          3      0    0.250   1.001     qc      0         |                
   |         loc     1    0.000   1.001     pn      0         |                
   |                                                          |                
   | Augmentation charge Rinner = 0.699                       |                
   | No partial core correction                               |                
   ------------------------------------------------------------                
   | "1|1.0|14|16|18|10U:20(qc=7)"                            |                
   ------------------------------------------------------------                
   |      Author: Chris J. Pickard, Cambridge University      |                
   ============================================================                
 
 Atomic calculation performed for O: 1s2 2s2 2p4
 
 Converged in 57 iterations to an ae energy of -2034.019 eV
 
   ============================================================                
   | Pseudopotential Report - Date of generation 14-06-2022   |                
   ------------------------------------------------------------                
   | Element: O Ionic charge:  6.00 Level of theory: PBESOL   |                
   | Atomic Solver: Koelling-Harmon                           |                
   |                                                          |                
   |               Reference Electronic Structure             |                
   |         Orbital         Occupation         Energy        |                
   |            2s              2.000           -0.875        |                
   |            2p              4.000           -0.330        |                
   |                                                          |                
   |                 Pseudopotential Definition               |                
   |        Beta     l      e      Rc     scheme   norm       |                
   |          1      0   -0.875   1.100     qc      0         |                
   |          2      0    0.250   1.100     qc      0         |                
   |          3      1   -0.330   1.100     qc      0         |                
   |          4      1    0.250   1.100     qc      0         |                
   |         loc     2    0.000   1.100     pn      0         |                
   |                                                          |                
   | Augmentation charge Rinner = 0.769                       |                
   | Partial core correction Rc = 0.769                       |                
   ------------------------------------------------------------                
   | "2|1.1|17|20|23|20:21(qc=8)"                             |                
   ------------------------------------------------------------                
   |      Author: Chris J. Pickard, Cambridge University      |                
   ============================================================                
 
 Atomic calculation performed for Al: 1s2 2s2 2p6 3s2 3p1
 
 Converged in 55 iterations to an ae energy of -6590.489 eV
 
   ============================================================                
   | Pseudopotential Report - Date of generation 14-06-2022   |                
   ------------------------------------------------------------                
   | Element: Al Ionic charge:  3.00 Level of theory: PBESOL  |                
   | Atomic Solver: Koelling-Harmon                           |                
   |                                                          |                
   |               Reference Electronic Structure             |                
   |         Orbital         Occupation         Energy        |                
   |            3s              2.000           -0.284        |                
   |            3p              1.000           -0.099        |                
   |                                                          |                
   |                 Pseudopotential Definition               |                
   |        Beta     l      e      Rc     scheme   norm       |                
   |          1      0   -0.284   2.192     qc      0         |                
   |          2      0    0.250   2.192     qc      0         |                
   |          3      1   -0.099   2.192     qc      0         |                
   |          4      1    0.250   2.192     qc      0         |                
   |          5      2    0.000   2.000     qc      0         |                
   |          6      2    0.250   2.000     qc      0         |                
   |         loc     3    0.000   2.192     pn      0         |                
   |                                                          |                
   | Augmentation charge Rinner = 1.398                       |                
   | Partial core correction Rc = 1.398                       |                
   ------------------------------------------------------------                
   | "3|2.2|2.2|1.4|4|5|5|30:31:32U2U2"                       |                
   ------------------------------------------------------------                
   |      Author: Chris J. Pickard, Cambridge University      |                
   ============================================================                
 
 Pseudo atomic calculation performed for Li 1s2 2s1
 
 Converged in 22 iterations to a total energy of -198.8875 eV
 
 Pseudo atomic calculation performed for O 2s2 2p4
 
 Converged in 33 iterations to a total energy of -431.1291 eV
 
 Pseudo atomic calculation performed for Al 3s2 3p1
 
 Converged in 20 iterations to a total energy of -105.9172 eV
Initialising basis set.
 
Standard grid dimensions: 135 135 135
Fine grid dimensions:     135 135 135
 
G-vector group:   1
 X-columns:
Process  Num. Cols.  Num. Fine Cols.  Num Weight. Cols.  Num Fine Weight. Cols.
   1         911              911                187                     187
   2         912              912                188                     188
   3         912              912                188                     188
   4         912              912                188                     188
   5         912              912                188                     188
   6         912              912                188                     188
   7         912              912                188                     188
   8         912              912                188                     188
   9         912              912                188                     188
  10         912              912                186                     186
  11         912              912                186                     186
  12         912              912                186                     186
  13         912              912                186                     186
  14         910              910                186                     186
  15         910              910                186                     186
  16         910              910                186                     186
  17         910              910                186                     186
  18         910              910                186                     186
  19         910              910                186                     186
  20         910              910                186                     186
Total      18225            18225               3737                    3737
 Y-columns:
Process  Num. Cols.  Num. Fine Cols.  Num Weight. Cols.  Num Fine Weight. Cols.
   1         912              912                507                     507
   2         912              912                507                     507
   3         912              912                507                     507
   4         912              912                507                     507
   5         912              912                507                     507
   6         911              911                506                     506
   7         911              911                506                     506
   8         911              911                506                     506
   9         911              911                506                     506
  10         911              911                506                     506
  11         911              911                506                     506
  12         911              911                506                     506
  13         911              911                506                     506
  14         911              911                506                     506
  15         911              911                506                     506
  16         911              911                506                     506
  17         911              911                506                     506
  18         911              911                506                     506
  19         911              911                506                     506
  20         911              911                506                     506
Total      18225            18225              10125                   10125
 Z-columns:
Process  Num. Cols.  Num. Fine Cols.  Num Weight. Cols.  Num Fine Weight. Cols.
   1         912              912                912                     912
   2         912              912                912                     912
   3         912              912                912                     912
   4         912              912                912                     912
   5         912              912                912                     912
   6         911              911                911                     911
   7         911              911                911                     911
   8         911              911                911                     911
   9         911              911                911                     911
  10         911              911                911                     911
  11         911              911                911                     911
  12         911              911                911                     911
  13         911              911                911                     911
  14         911              911                911                     911
  15         911              911                911                     911
  16         911              911                911                     911
  17         911              911                911                     911
  18         911              911                911                     911
  19         911              911                911                     911
  20         911              911                911                     911
Total      18225            18225              18225                   18225
 
G-vector group:   2
 X-columns:
Process  Num. Cols.  Num. Fine Cols.  Num Weight. Cols.  Num Fine Weight. Cols.
   1         911              911                187                     187
   2         912              912                188                     188
   3         912              912                188                     188
   4         912              912                188                     188
   5         912              912                188                     188
   6         912              912                188                     188
   7         912              912                188                     188
   8         912              912                188                     188
   9         912              912                188                     188
  10         912              912                186                     186
  11         912              912                186                     186
  12         912              912                186                     186
  13         912              912                186                     186
  14         910              910                186                     186
  15         910              910                186                     186
  16         910              910                186                     186
  17         910              910                186                     186
  18         910              910                186                     186
  19         910              910                186                     186
  20         910              910                186                     186
Total      18225            18225               3737                    3737
 Y-columns:
Process  Num. Cols.  Num. Fine Cols.  Num Weight. Cols.  Num Fine Weight. Cols.
   1         912              912                507                     507
   2         912              912                507                     507
   3         912              912                507                     507
   4         912              912                507                     507
   5         912              912                507                     507
   6         911              911                506                     506
   7         911              911                506                     506
   8         911              911                506                     506
   9         911              911                506                     506
  10         911              911                506                     506
  11         911              911                506                     506
  12         911              911                506                     506
  13         911              911                506                     506
  14         911              911                506                     506
  15         911              911                506                     506
  16         911              911                506                     506
  17         911              911                506                     506
  18         911              911                506                     506
  19         911              911                506                     506
  20         911              911                506                     506
Total      18225            18225              10125                   10125
 Z-columns:
Process  Num. Cols.  Num. Fine Cols.  Num Weight. Cols.  Num Fine Weight. Cols.
   1         912              912                912                     912
   2         912              912                912                     912
   3         912              912                912                     912
   4         912              912                912                     912
   5         912              912                912                     912
   6         911              911                911                     911
   7         911              911                911                     911
   8         911              911                911                     911
   9         911              911                911                     911
  10         911              911                911                     911
  11         911              911                911                     911
  12         911              911                911                     911
  13         911              911                911                     911
  14         911              911                911                     911
  15         911              911                911                     911
  16         911              911                911                     911
  17         911              911                911                     911
  18         911              911                911                     911
  19         911              911                911                     911
  20         911              911                911                     911
Total      18225            18225              18225                   18225
 
G-vector group:   3
 X-columns:
Process  Num. Cols.  Num. Fine Cols.  Num Weight. Cols.  Num Fine Weight. Cols.
   1         911              911                187                     187
   2         912              912                188                     188
   3         912              912                188                     188
   4         912              912                188                     188
   5         912              912                188                     188
   6         912              912                188                     188
   7         912              912                188                     188
   8         912              912                188                     188
   9         912              912                188                     188
  10         912              912                186                     186
  11         912              912                186                     186
  12         912              912                186                     186
  13         912              912                186                     186
  14         910              910                186                     186
  15         910              910                186                     186
  16         910              910                186                     186
  17         910              910                186                     186
  18         910              910                186                     186
  19         910              910                186                     186
  20         910              910                186                     186
Total      18225            18225               3737                    3737
 Y-columns:
Process  Num. Cols.  Num. Fine Cols.  Num Weight. Cols.  Num Fine Weight. Cols.
   1         912              912                507                     507
   2         912              912                507                     507
   3         912              912                507                     507
   4         912              912                507                     507
   5         912              912                507                     507
   6         911              911                506                     506
   7         911              911                506                     506
   8         911              911                506                     506
   9         911              911                506                     506
  10         911              911                506                     506
  11         911              911                506                     506
  12         911              911                506                     506
  13         911              911                506                     506
  14         911              911                506                     506
  15         911              911                506                     506
  16         911              911                506                     506
  17         911              911                506                     506
  18         911              911                506                     506
  19         911              911                506                     506
  20         911              911                506                     506
Total      18225            18225              10125                   10125
 Z-columns:
Process  Num. Cols.  Num. Fine Cols.  Num Weight. Cols.  Num Fine Weight. Cols.
   1         912              912                912                     912
   2         912              912                912                     912
   3         912              912                912                     912
   4         912              912                912                     912
   5         912              912                912                     912
   6         911              911                911                     911
   7         911              911                911                     911
   8         911              911                911                     911
   9         911              911                911                     911
  10         911              911                911                     911
  11         911              911                911                     911
  12         911              911                911                     911
  13         911              911                911                     911
  14         911              911                911                     911
  15         911              911                911                     911
  16         911              911                911                     911
  17         911              911                911                     911
  18         911              911                911                     911
  19         911              911                911                     911
  20         911              911                911                     911
Total      18225            18225              18225                   18225
 
G-vector group:   4
 X-columns:
Process  Num. Cols.  Num. Fine Cols.  Num Weight. Cols.  Num Fine Weight. Cols.
   1         911              911                187                     187
   2         912              912                188                     188
   3         912              912                188                     188
   4         912              912                188                     188
   5         912              912                188                     188
   6         912              912                188                     188
   7         912              912                188                     188
   8         912              912                188                     188
   9         912              912                188                     188
  10         912              912                186                     186
  11         912              912                186                     186
  12         912              912                186                     186
  13         912              912                186                     186
  14         910              910                186                     186
  15         910              910                186                     186
  16         910              910                186                     186
  17         910              910                186                     186
  18         910              910                186                     186
  19         910              910                186                     186
  20         910              910                186                     186
Total      18225            18225               3737                    3737
 Y-columns:
Process  Num. Cols.  Num. Fine Cols.  Num Weight. Cols.  Num Fine Weight. Cols.
   1         912              912                507                     507
   2         912              912                507                     507
   3         912              912                507                     507
   4         912              912                507                     507
   5         912              912                507                     507
   6         911              911                506                     506
   7         911              911                506                     506
   8         911              911                506                     506
   9         911              911                506                     506
  10         911              911                506                     506
  11         911              911                506                     506
  12         911              911                506                     506
  13         911              911                506                     506
  14         911              911                506                     506
  15         911              911                506                     506
  16         911              911                506                     506
  17         911              911                506                     506
  18         911              911                506                     506
  19         911              911                506                     506
  20         911              911                506                     506
Total      18225            18225              10125                   10125
 Z-columns:
Process  Num. Cols.  Num. Fine Cols.  Num Weight. Cols.  Num Fine Weight. Cols.
   1         912              912                912                     912
   2         912              912                912                     912
   3         912              912                912                     912
   4         912              912                912                     912
   5         912              912                912                     912
   6         911              911                911                     911
   7         911              911                911                     911
   8         911              911                911                     911
   9         911              911                911                     911
  10         911              911                911                     911
  11         911              911                911                     911
  12         911              911                911                     911
  13         911              911                911                     911
  14         911              911                911                     911
  15         911              911                911                     911
  16         911              911                911                     911
  17         911              911                911                     911
  18         911              911                911                     911
  19         911              911                911                     911
  20         911              911                911                     911
Total      18225            18225              18225                   18225
 
Plane wave load balancing: max   7142 min   7023 average   7081
True cut-off energy of basis :  33.073
 Calculation parallelised over 80 processes.
 Data is distributed by G-vector(20-way) and k-point(4-way)

 ************************************ Title ************************************
 

 ***************************** General Parameters ******************************
  
 output verbosity                               : verbose (2)
 write checkpoint data to                       : nmr.check
 type of calculation                            : Magnetic Resonance
 stress calculation                             : off
 density difference calculation                 : off
 electron localisation func (ELF) calculation   : off
 Hirshfeld analysis                             : off
 molecular orbital projected DOS                : off
 deltaSCF calculation                           : off
 unlimited duration calculation
 timing information                             : on
 memory usage estimate                          : on
 write extra output files                       : on
 write final potential to formatted file        : off
 write final density to formatted file          : off
 write BibTeX reference list                    : on
 write OTFG pseudopotential files               : on
 write electrostatic potential file             : on
 write bands file                               : on
 checkpoint writing                             : both castep_bin and check files
  
 output         length unit                     : A
 output           mass unit                     : amu
 output           time unit                     : ps
 output         charge unit                     : e
 output           spin unit                     : hbar/2
 output         energy unit                     : eV
 output          force unit                     : eV/A
 output       velocity unit                     : A/ps
 output       pressure unit                     : GPa
 output     inv_length unit                     : 1/A
 output      frequency unit                     : cm-1
 output force constant unit                     : eV/A**2
 output         volume unit                     : A**3
 output   IR intensity unit                     : (D/A)**2/amu
 output         dipole unit                     : D
 output         efield unit                     : eV/A/e
 output        entropy unit                     : J/mol/K
 output    efield chi2 unit                     : pm/V
  
 wavefunctions paging                           : none
 random number generator seed                   : randomised (202001127)
 data distribution                              : optimal for this architecture
 optimization strategy                          : maximize speed(+++)

 *********************** Exchange-Correlation Parameters ***********************
  
 using functional                               : PBE for solids (2008)
 relativistic treatment                         : Koelling-Harmon
 DFT+D: Semi-empirical dispersion correction    : off

 ************************* Pseudopotential Parameters **************************
  
 pseudopotential representation                 : reciprocal space
 <beta|phi> representation                      : reciprocal space
 spin-orbit coupling                            : off

 **************************** Basis Set Parameters *****************************
  
 plane wave basis set cut-off                   :   900.0000   eV
 size of standard grid                          :     1.7500
 size of   fine   gmax                          :    26.8966   1/A
 finite basis set correction                    : none

 **************************** Electronic Parameters ****************************
  
 number of  electrons                           :  1298.    
 net charge of system                           : +1.000    
 treating system as non-spin-polarized
 number of bands                                :        779

 ********************* Electronic Minimization Parameters **********************
  
 Method: Treating system as metallic with density mixing treatment of electrons,
         and number of  SD  steps               :          1
         and number of  CG  steps               :          4
  
 total energy / atom convergence tol.           : 0.1000E-07   eV
 eigen-energy convergence tolerance             : 0.4176E-08   eV
 max force / atom convergence tol.              : ignored
 convergence tolerance window                   :          3   cycles
 max. number of SCF cycles                      :         30
 number of fixed-spin iterations                :         10
 smearing scheme                                : Gaussian
 smearing width                                 : 0.2000       eV
 Fermi energy convergence tolerance             : 0.2721E-13   eV
 periodic dipole correction                     : NONE

 ************************** Density Mixing Parameters **************************
  
 density-mixing scheme                          : Broyden
 max. length of mixing history                  :         20
 charge density mixing amplitude                : 0.8000    
 cut-off energy for mixing                      :  900.0       eV

 *********************** Population Analysis Parameters ************************
  
 Population analysis with cutoff                :  3.000       A
 Population analysis output                     : summary and pdos components

 ************************ Magnetic Resonance Parameters ************************
  
 Magnetic Resonance Property                    : Electric Field Gradient
 band convergence tolerance                     : 0.1000E-08   eV

 *******************************************************************************
  
 
                           -------------------------------
                                      Unit Cell
                           -------------------------------
        Real Lattice(A)                      Reciprocal Lattice(1/A)
     7.1585490     4.1329960    13.0126620        0.438858935   0.253374959   0.160950498
    -7.1585410     4.1329870    13.0126610       -0.438859276   0.253375526   0.160950588
    -0.0000040    -8.2659800    13.0126600        0.000000307  -0.506750544   0.160950601
 
                       Lattice parameters(A)       Cell Angles
                    a =     15.416091          alpha =   55.337041
                    b =     15.416084          beta  =   55.337094
                    c =     15.416087          gamma =   55.337039
 
                       Current cell volume =          2309.971027       A**3
                                   density =             2.386545   AMU/A**3
                                           =             3.962951     g/cm^3
 
                           -------------------------------
                                     Cell Contents
                           -------------------------------
                         Total number of ions in cell =  271
                      Total number of species in cell =    3
                        Max number of any one species =  162
 
            xxxxxxxxxxxxxxxxxxxxxxxxxxxxxxxxxxxxxxxxxxxxxxxxxxxxxxxxxxxx
            x  Element    Atom        Fractional coordinates of atoms  x
            x            Number           u          v          w      x
            x----------------------------------------------------------x
            x  Li           1         0.166719   0.166706   0.166715   x 
            x  O            1         0.187166   0.310431   0.086727   x 
            x  O            2         0.310433   0.086726   0.187167   x 
            x  O            3         0.086727   0.187166   0.310433   x 
            x  O            4         0.023011   0.246618   0.146256   x 
            x  O            5         0.246620   0.146254   0.023010   x 
            x  O            6         0.146255   0.023010   0.246620   x 
            x  O            7         0.185352   0.315559   0.417899   x 
            x  O            8         0.315186   0.083213   0.519014   x 
            x  O            9         0.083473   0.185253   0.647711   x 
            x  O           10         0.019176   0.250269   0.480443   x 
            x  O           11         0.250094   0.149428   0.354578   x 
            x  O           12         0.148072   0.018390   0.583206   x 
            x  O           13         0.185257   0.314944   0.750137   x 
            x  O           14         0.314147   0.083072   0.852919   x 
            x  O           15         0.083261   0.183931   0.978863   x 
            x  O           16         0.018159   0.250117   0.814330   x 
            x  O           17         0.249861   0.148079   0.685627   x 
            x  O           18         0.147968   0.017790   0.915489   x 
            x  O           19         0.185253   0.647711   0.083473   x 
            x  O           20         0.315558   0.417899   0.185352   x 
            x  O           21         0.083213   0.519014   0.315186   x 
            x  O           22         0.018390   0.583206   0.148072   x 
            x  O           23         0.250269   0.480444   0.019176   x 
            x  O           24         0.149427   0.354578   0.250094   x 
            x  O           25         0.185325   0.648608   0.416414   x 
            x  O           26         0.314782   0.416871   0.518713   x 
            x  O           27         0.083263   0.518759   0.648190   x 
            x  O           28         0.018568   0.583504   0.481657   x 
            x  O           29         0.250108   0.481708   0.352176   x 
            x  O           30         0.148151   0.352007   0.583823   x 
            x  O           31         0.185233   0.648056   0.750011   x 
            x  O           32         0.314576   0.416847   0.852050   x 
            x  O           33         0.084061   0.517121   0.981901   x 
            x  O           34         0.018735   0.583043   0.815125   x 
            x  O           35         0.250035   0.481195   0.685563   x 
            x  O           36         0.148308   0.351094   0.917549   x 
            x  O           37         0.183931   0.978863   0.083261   x 
            x  O           38         0.314943   0.750137   0.185257   x 
            x  O           39         0.083072   0.852919   0.314147   x 
            x  O           40         0.017790   0.915489   0.147968   x 
            x  O           41         0.250116   0.814330   0.018159   x 
            x  O           42         0.148079   0.685627   0.249861   x 
            x  O           43         0.185029   0.982234   0.415812   x 
            x  O           44         0.314600   0.750293   0.518210   x 
            x  O           45         0.083299   0.852141   0.647772   x 
            x  O           46         0.018763   0.916492   0.481279   x 
            x  O           47         0.249269   0.816228   0.351421   x 
            x  O           48         0.148102   0.685277   0.583326   x 
            x  O           49         0.185183   0.981328   0.749516   x 
            x  O           50         0.314764   0.749833   0.851677   x 
            x  O           51         0.083230   0.851620   0.981157   x 
            x  O           52         0.018553   0.916463   0.814622   x 
            x  O           53         0.250072   0.814575   0.685144   x 
            x  O           54         0.148007   0.684724   0.916921   x 
            x  O           55         0.519014   0.315187   0.083213   x 
            x  O           56         0.647711   0.083474   0.185253   x 
            x  O           57         0.417899   0.185353   0.315558   x 
            x  O           58         0.354577   0.250094   0.149427   x 
            x  O           59         0.583206   0.148073   0.018390   x 
            x  O           60         0.480443   0.019176   0.250269   x 
            x  O           61         0.518713   0.314782   0.416871   x 
            x  O           62         0.648191   0.083263   0.518759   x 
            x  O           63         0.416414   0.185325   0.648608   x 
            x  O           64         0.352177   0.250108   0.481708   x 
            x  O           65         0.583823   0.148151   0.352007   x 
            x  O           66         0.481657   0.018568   0.583504   x 
            x  O           67         0.518210   0.314600   0.750293   x 
            x  O           68         0.647772   0.083299   0.852140   x 
            x  O           69         0.415812   0.185029   0.982235   x 
            x  O           70         0.351420   0.249269   0.816228   x 
            x  O           71         0.583326   0.148102   0.685277   x 
            x  O           72         0.481279   0.018764   0.916492   x 
            x  O           73         0.518759   0.648191   0.083263   x 
            x  O           74         0.648608   0.416415   0.185325   x 
            x  O           75         0.416871   0.518713   0.314782   x 
            x  O           76         0.352007   0.583823   0.148151   x 
            x  O           77         0.583504   0.481658   0.018568   x 
            x  O           78         0.481708   0.352177   0.250107   x 
            x  O           79         0.518566   0.648147   0.416608   x 
            x  O           80         0.648147   0.416608   0.518565   x 
            x  O           81         0.416608   0.518566   0.648147   x 
            x  O           82         0.351825   0.583495   0.481409   x 
            x  O           83         0.583495   0.481409   0.351825   x 
            x  O           84         0.481409   0.351825   0.583494   x 
            x  O           85         0.518609   0.648025   0.749955   x 
            x  O           86         0.647953   0.416785   0.851886   x 
            x  O           87         0.416658   0.518888   0.981392   x 
            x  O           88         0.351901   0.583117   0.814961   x 
            x  O           89         0.583361   0.481319   0.685197   x 
            x  O           90         0.481175   0.351784   0.916935   x 
            x  O           91         0.517121   0.981901   0.084060   x 
            x  O           92         0.648056   0.750011   0.185233   x 
            x  O           93         0.416847   0.852050   0.314577   x 
            x  O           94         0.351095   0.917549   0.148308   x 
            x  O           95         0.583043   0.815125   0.018735   x 
            x  O           96         0.481195   0.685563   0.250035   x 
            x  O           97         0.518888   0.981393   0.416658   x 
            x  O           98         0.648024   0.749955   0.518609   x 
            x  O           99         0.416784   0.851886   0.647953   x 
            x  O          100         0.351783   0.916935   0.481176   x 
            x  O          101         0.583117   0.814961   0.351901   x 
            x  O          102         0.481319   0.685197   0.583361   x 
            x  O          103         0.518373   0.981435   0.750217   x 
            x  O          104         0.648138   0.749973   0.852015   x 
            x  O          105         0.416393   0.852163   0.981555   x 
            x  O          106         0.351939   0.916678   0.814452   x 
            x  O          107         0.583379   0.814725   0.685310   x 
            x  O          108         0.481449   0.685379   0.916549   x 
            x  O          109         0.852920   0.314147   0.083072   x 
            x  O          110         0.978863   0.083261   0.183931   x 
            x  O          111         0.750137   0.185257   0.314944   x 
            x  O          112         0.685627   0.249861   0.148079   x 
            x  O          113         0.915489   0.147968   0.017790   x 
            x  O          114         0.814330   0.018159   0.250116   x 
            x  O          115         0.852051   0.314577   0.416847   x 
            x  O          116         0.981901   0.084060   0.517121   x 
            x  O          117         0.750011   0.185233   0.648055   x 
            x  O          118         0.685563   0.250035   0.481194   x 
            x  O          119         0.917549   0.148308   0.351095   x 
            x  O          120         0.815125   0.018735   0.583043   x 
            x  O          121         0.851677   0.314764   0.749833   x 
            x  O          122         0.981157   0.083230   0.851620   x 
            x  O          123         0.749516   0.185183   0.981328   x 
            x  O          124         0.685143   0.250073   0.814574   x 
            x  O          125         0.916921   0.148008   0.684724   x 
            x  O          126         0.814622   0.018553   0.916463   x 
            x  O          127         0.852141   0.647772   0.083299   x 
            x  O          128         0.982235   0.415812   0.185029   x 
            x  O          129         0.750293   0.518210   0.314600   x 
            x  O          130         0.685277   0.583326   0.148102   x 
            x  O          131         0.916493   0.481278   0.018764   x 
            x  O          132         0.816229   0.351420   0.249269   x 
            x  O          133         0.851886   0.647953   0.416784   x 
            x  O          134         0.981392   0.416659   0.518888   x 
            x  O          135         0.749955   0.518609   0.648024   x 
            x  O          136         0.685197   0.583362   0.481318   x 
            x  O          137         0.916935   0.481176   0.351783   x 
            x  O          138         0.814961   0.351902   0.583117   x 
            x  O          139         0.852015   0.648138   0.749972   x 
            x  O          140         0.981555   0.416393   0.852162   x 
            x  O          141         0.750217   0.518373   0.981434   x 
            x  O          142         0.685310   0.583379   0.814725   x 
            x  O          143         0.916549   0.481449   0.685379   x 
            x  O          144         0.814452   0.351939   0.916678   x 
            x  O          145         0.851620   0.981157   0.083230   x 
            x  O          146         0.981328   0.749516   0.185183   x 
            x  O          147         0.749833   0.851678   0.314764   x 
            x  O          148         0.684724   0.916921   0.148007   x 
            x  O          149         0.916463   0.814622   0.018553   x 
            x  O          150         0.814574   0.685144   0.250072   x 
            x  O          151         0.852163   0.981555   0.416393   x 
            x  O          152         0.981435   0.750217   0.518373   x 
            x  O          153         0.749972   0.852016   0.648138   x 
            x  O          154         0.685379   0.916549   0.481449   x 
            x  O          155         0.916678   0.814452   0.351939   x 
            x  O          156         0.814725   0.685310   0.583378   x 
            x  O          157         0.851926   0.981510   0.749840   x 
            x  O          158         0.981510   0.749840   0.851926   x 
            x  O          159         0.749841   0.851926   0.981510   x 
            x  O          160         0.685189   0.916726   0.814770   x 
            x  O          161         0.916726   0.814770   0.685189   x 
            x  O          162         0.814770   0.685189   0.916726   x 
            x  Al           1         0.046499   0.046499   0.046499   x 
            x  Al           2         0.221774   0.221775   0.221775   x 
            x  Al           3         0.286913   0.286914   0.286913   x 
            x  Al           4         0.111641   0.111642   0.111642   x 
            x  Al           5         0.048520   0.048121   0.384005   x 
            x  Al           6         0.216289   0.215671   0.550235   x 
            x  Al           7         0.284054   0.284390   0.617415   x 
            x  Al           8         0.117330   0.117036   0.451621   x 
            x  Al           9         0.049280   0.048945   0.715918   x 
            x  Al          10         0.216020   0.216319   0.881712   x 
            x  Al          11         0.284818   0.285218   0.949368   x 
            x  Al          12         0.117040   0.117649   0.783128   x 
            x  Al          13         0.048122   0.384004   0.048521   x 
            x  Al          14         0.215671   0.550235   0.216289   x 
            x  Al          15         0.284390   0.617415   0.284054   x 
            x  Al          16         0.117036   0.451621   0.117329   x 
            x  Al          17         0.048852   0.383644   0.383683   x 
            x  Al          18         0.215917   0.549399   0.549350   x 
            x  Al          19         0.284036   0.617411   0.617402   x 
            x  Al          20         0.117414   0.451220   0.451421   x 
            x  Al          21         0.049041   0.382828   0.715979   x 
            x  Al          22         0.216239   0.549590   0.882356   x 
            x  Al          23         0.284043   0.617462   0.950671   x 
            x  Al          24         0.117336   0.450873   0.783877   x 
            x  Al          25         0.048945   0.715918   0.049281   x 
            x  Al          26         0.216319   0.881712   0.216020   x 
            x  Al          27         0.285219   0.949366   0.284819   x 
            x  Al          28         0.117649   0.783128   0.117040   x 
            x  Al          29         0.049284   0.715876   0.382666   x 
            x  Al          30         0.215998   0.882462   0.549465   x 
            x  Al          31         0.284292   0.950514   0.617350   x 
            x  Al          32         0.117104   0.783749   0.450974   x 
            x  Al          33         0.049299   0.715926   0.715933   x 
            x  Al          34         0.215916   0.882124   0.881921   x 
            x  Al          35         0.284467   0.949704   0.949674   x 
            x  Al          36         0.117420   0.783935   0.783986   x 
            x  Al          37         0.384006   0.048519   0.048121   x 
            x  Al          38         0.550234   0.216290   0.215671   x 
            x  Al          39         0.617415   0.284054   0.284390   x 
            x  Al          40         0.451621   0.117330   0.117036   x 
            x  Al          41         0.383683   0.048852   0.383644   x 
            x  Al          42         0.549350   0.215917   0.549399   x 
            x  Al          43         0.617402   0.284036   0.617410   x 
            x  Al          44         0.451421   0.117414   0.451220   x 
            x  Al          45         0.382666   0.049284   0.715876   x 
            x  Al          46         0.549465   0.215998   0.882462   x 
            x  Al          47         0.617350   0.284292   0.950513   x 
            x  Al          48         0.450974   0.117105   0.783748   x 
            x  Al          49         0.383644   0.383683   0.048852   x 
            x  Al          50         0.549399   0.549350   0.215917   x 
            x  Al          51         0.617410   0.617402   0.284036   x 
            x  Al          52         0.451220   0.451422   0.117414   x 
            x  Al          53         0.382880   0.382880   0.382880   x 
            x  Al          54         0.549292   0.549292   0.549292   x 
            x  Al          55         0.617373   0.617374   0.617373   x 
            x  Al          56         0.450794   0.450794   0.450794   x 
            x  Al          57         0.382810   0.382735   0.715687   x 
            x  Al          58         0.549452   0.549488   0.882399   x 
            x  Al          59         0.617507   0.617419   0.950595   x 
            x  Al          60         0.450944   0.450778   0.783915   x 
            x  Al          61         0.382828   0.715979   0.049041   x 
            x  Al          62         0.549590   0.882356   0.216238   x 
            x  Al          63         0.617462   0.950671   0.284043   x 
            x  Al          64         0.450873   0.783877   0.117336   x 
            x  Al          65         0.382735   0.715687   0.382810   x 
            x  Al          66         0.549488   0.882399   0.549453   x 
            x  Al          67         0.617419   0.950595   0.617507   x 
            x  Al          68         0.450778   0.783916   0.450944   x 
            x  Al          69         0.382739   0.715828   0.715916   x 
            x  Al          70         0.549417   0.882395   0.882557   x 
            x  Al          71         0.617656   0.950521   0.950590   x 
            x  Al          72         0.450932   0.783884   0.783848   x 
            x  Al          73         0.715918   0.049281   0.048945   x 
            x  Al          74         0.881712   0.216020   0.216319   x 
            x  Al          75         0.949368   0.284818   0.285218   x 
            x  Al          76         0.783128   0.117041   0.117649   x 
            x  Al          77         0.715979   0.049041   0.382828   x 
            x  Al          78         0.882356   0.216239   0.549590   x 
            x  Al          79         0.950671   0.284043   0.617462   x 
            x  Al          80         0.783877   0.117336   0.450873   x 
            x  Al          81         0.715933   0.049299   0.715926   x 
            x  Al          82         0.881921   0.215916   0.882124   x 
            x  Al          83         0.949674   0.284467   0.949704   x 
            x  Al          84         0.783986   0.117420   0.783935   x 
            x  Al          85         0.715876   0.382666   0.049284   x 
            x  Al          86         0.882463   0.549465   0.215998   x 
            x  Al          87         0.950513   0.617350   0.284292   x 
            x  Al          88         0.783749   0.450974   0.117104   x 
            x  Al          89         0.715687   0.382810   0.382735   x 
            x  Al          90         0.882399   0.549453   0.549488   x 
            x  Al          91         0.950595   0.617507   0.617419   x 
            x  Al          92         0.783915   0.450944   0.450777   x 
            x  Al          93         0.715916   0.382740   0.715828   x 
            x  Al          94         0.882557   0.549417   0.882395   x 
            x  Al          95         0.950590   0.617656   0.950522   x 
            x  Al          96         0.783848   0.450933   0.783883   x 
            x  Al          97         0.715926   0.715933   0.049299   x 
            x  Al          98         0.882124   0.881921   0.215916   x 
            x  Al          99         0.949704   0.949674   0.284467   x 
            x  Al         100         0.783935   0.783986   0.117420   x 
            x  Al         101         0.715828   0.715916   0.382739   x 
            x  Al         102         0.882395   0.882557   0.549417   x 
            x  Al         103         0.950521   0.950590   0.617656   x 
            x  Al         104         0.783883   0.783848   0.450932   x 
            x  Al         105         0.715961   0.715961   0.715961   x 
            x  Al         106         0.882543   0.882542   0.882543   x 
            x  Al         107         0.950458   0.950459   0.950458   x 
            x  Al         108         0.784042   0.784043   0.784042   x 
            xxxxxxxxxxxxxxxxxxxxxxxxxxxxxxxxxxxxxxxxxxxxxxxxxxxxxxxxxxxx
 
 
                         No user defined ionic velocities
 
                           -------------------------------
                                   Details of Species
                           -------------------------------
 
                               Mass of species in AMU
                                    Li    6.9410000
                                    O   15.9994000
                                    Al   26.9815400
 
                          Electric Quadrupole Moment (Barn)
                                    Li    0.0326000  User Defined Isotope
                                    O   -0.0255800 Isotope 17
                                    Al    0.1466000 Isotope 27
 
                          Files used for pseudopotentials:
                                    Li 1|1.0|14|16|18|10U:20(qc=7)
                                    O 2|1.1|17|20|23|20:21(qc=8)
                                    Al 3|2.2|2.2|1.4|4|5|5|30:31:32U2U2
 
                           -------------------------------
                              k-Points For BZ Sampling
                           -------------------------------
                       MP grid size for SCF calculation is  2  2  2
                            with an offset of   0.000  0.000  0.000
                       Number of kpoints used =             4
 
             +++++++++++++++++++++++++++++++++++++++++++++++++++++++
             +  Number       Fractional coordinates        Weight  +
             +-----------------------------------------------------+
             +     1  -0.250000  -0.250000  -0.250000   0.2500000  +
             +     2  -0.250000  -0.250000   0.250000   0.2500000  +
             +     3  -0.250000   0.250000   0.250000   0.2500000  +
             +     4   0.250000  -0.250000   0.250000   0.2500000  +
             +++++++++++++++++++++++++++++++++++++++++++++++++++++++
 
                           -------------------------------
                               Symmetry and Constraints
                           -------------------------------
 
                      Maximum deviation from symmetry =  0.00000         ANG
 
                      Number of symmetry operations   =           1
                      Number of ionic constraints     =           3
                      Point group of crystal =     1: C1, 1, 1
                      Space group of crystal =   146: R3, R 3
 
                    1 rotation    
                 (   1.00000000000   0.00000000000   0.00000000000 )
                 (   0.00000000000   1.00000000000   0.00000000000 )
                 (   0.00000000000   0.00000000000   1.00000000000 )
                    1 displacement
                 (   0.00000000000   0.00000000000   0.00000000000 )
                      symmetry related atoms: 
             Li:    1
             O:    1    2    3    4    5    6    7    8    9   10   11   12   13   14   15   16   17   18   19   20   21   22   23   24   25   26   27   28   29   30   31   32   33   34   35   36   37   38   39   40   41   42   43   44   45   46   47   48   49   50   51   52   53   54   55   56   57   58   59   60   61   62   63   64   65   66   67   68   69   70   71   72   73   74   75   76   77   78   79   80   81   82   83   84   85   86   87   88   89   90   91   92   93   94   95   96   97   98   99  100  101  102  103  104  105  106  107  108  109  110  111  112  113  114  115  116  117  118  119  120  121  122  123  124  125  126  127  128  129  130  131  132  133  134  135  136  137  138  139  140  141  142  143  144  145  146  147  148  149  150  151  152  153  154  155  156  157  158  159  160  161  162
             Al:    1    2    3    4    5    6    7    8    9   10   11   12   13   14   15   16   17   18   19   20   21   22   23   24   25   26   27   28   29   30   31   32   33   34   35   36   37   38   39   40   41   42   43   44   45   46   47   48   49   50   51   52   53   54   55   56   57   58   59   60   61   62   63   64   65   66   67   68   69   70   71   72   73   74   75   76   77   78   79   80   81   82   83   84   85   86   87   88   89   90   91   92   93   94   95   96   97   98   99  100  101  102  103  104  105  106  107  108
 
 
                         Centre of mass is constrained
 
            xxxxxxxxxxxxxxxxxxxxxxxxxxxxxxxxxxxxxxxxxxxxxxxxxxxxxxxxxxxxxx....
            x  Species       atom   co-ordinate  constraints.....         
            x-------------------------------------------------------------....
            x Li                1       x        12652.6690      0.0000      0.0000
            x Li                1       y            0.0000  12652.6690      0.0000
            x Li                1       z            0.0000      0.0000  12652.6690
            x O                 1       x        29165.1220      0.0000      0.0000
            x O                 1       y            0.0000  29165.1220      0.0000
            x O                 1       z            0.0000      0.0000  29165.1220
            x O                 2       x        29165.1220      0.0000      0.0000
            x O                 2       y            0.0000  29165.1220      0.0000
            x O                 2       z            0.0000      0.0000  29165.1220
            x O                 3       x        29165.1220      0.0000      0.0000
            x O                 3       y            0.0000  29165.1220      0.0000
            x O                 3       z            0.0000      0.0000  29165.1220
            x O                 4       x        29165.1220      0.0000      0.0000
            x O                 4       y            0.0000  29165.1220      0.0000
            x O                 4       z            0.0000      0.0000  29165.1220
            x O                 5       x        29165.1220      0.0000      0.0000
            x O                 5       y            0.0000  29165.1220      0.0000
            x O                 5       z            0.0000      0.0000  29165.1220
            x O                 6       x        29165.1220      0.0000      0.0000
            x O                 6       y            0.0000  29165.1220      0.0000
            x O                 6       z            0.0000      0.0000  29165.1220
            x O                 7       x        29165.1220      0.0000      0.0000
            x O                 7       y            0.0000  29165.1220      0.0000
            x O                 7       z            0.0000      0.0000  29165.1220
            x O                 8       x        29165.1220      0.0000      0.0000
            x O                 8       y            0.0000  29165.1220      0.0000
            x O                 8       z            0.0000      0.0000  29165.1220
            x O                 9       x        29165.1220      0.0000      0.0000
            x O                 9       y            0.0000  29165.1220      0.0000
            x O                 9       z            0.0000      0.0000  29165.1220
            x O                10       x        29165.1220      0.0000      0.0000
            x O                10       y            0.0000  29165.1220      0.0000
            x O                10       z            0.0000      0.0000  29165.1220
            x O                11       x        29165.1220      0.0000      0.0000
            x O                11       y            0.0000  29165.1220      0.0000
            x O                11       z            0.0000      0.0000  29165.1220
            x O                12       x        29165.1220      0.0000      0.0000
            x O                12       y            0.0000  29165.1220      0.0000
            x O                12       z            0.0000      0.0000  29165.1220
            x O                13       x        29165.1220      0.0000      0.0000
            x O                13       y            0.0000  29165.1220      0.0000
            x O                13       z            0.0000      0.0000  29165.1220
            x O                14       x        29165.1220      0.0000      0.0000
            x O                14       y            0.0000  29165.1220      0.0000
            x O                14       z            0.0000      0.0000  29165.1220
            x O                15       x        29165.1220      0.0000      0.0000
            x O                15       y            0.0000  29165.1220      0.0000
            x O                15       z            0.0000      0.0000  29165.1220
            x O                16       x        29165.1220      0.0000      0.0000
            x O                16       y            0.0000  29165.1220      0.0000
            x O                16       z            0.0000      0.0000  29165.1220
            x O                17       x        29165.1220      0.0000      0.0000
            x O                17       y            0.0000  29165.1220      0.0000
            x O                17       z            0.0000      0.0000  29165.1220
            x O                18       x        29165.1220      0.0000      0.0000
            x O                18       y            0.0000  29165.1220      0.0000
            x O                18       z            0.0000      0.0000  29165.1220
            x O                19       x        29165.1220      0.0000      0.0000
            x O                19       y            0.0000  29165.1220      0.0000
            x O                19       z            0.0000      0.0000  29165.1220
            x O                20       x        29165.1220      0.0000      0.0000
            x O                20       y            0.0000  29165.1220      0.0000
            x O                20       z            0.0000      0.0000  29165.1220
            x O                21       x        29165.1220      0.0000      0.0000
            x O                21       y            0.0000  29165.1220      0.0000
            x O                21       z            0.0000      0.0000  29165.1220
            x O                22       x        29165.1220      0.0000      0.0000
            x O                22       y            0.0000  29165.1220      0.0000
            x O                22       z            0.0000      0.0000  29165.1220
            x O                23       x        29165.1220      0.0000      0.0000
            x O                23       y            0.0000  29165.1220      0.0000
            x O                23       z            0.0000      0.0000  29165.1220
            x O                24       x        29165.1220      0.0000      0.0000
            x O                24       y            0.0000  29165.1220      0.0000
            x O                24       z            0.0000      0.0000  29165.1220
            x O                25       x        29165.1220      0.0000      0.0000
            x O                25       y            0.0000  29165.1220      0.0000
            x O                25       z            0.0000      0.0000  29165.1220
            x O                26       x        29165.1220      0.0000      0.0000
            x O                26       y            0.0000  29165.1220      0.0000
            x O                26       z            0.0000      0.0000  29165.1220
            x O                27       x        29165.1220      0.0000      0.0000
            x O                27       y            0.0000  29165.1220      0.0000
            x O                27       z            0.0000      0.0000  29165.1220
            x O                28       x        29165.1220      0.0000      0.0000
            x O                28       y            0.0000  29165.1220      0.0000
            x O                28       z            0.0000      0.0000  29165.1220
            x O                29       x        29165.1220      0.0000      0.0000
            x O                29       y            0.0000  29165.1220      0.0000
            x O                29       z            0.0000      0.0000  29165.1220
            x O                30       x        29165.1220      0.0000      0.0000
            x O                30       y            0.0000  29165.1220      0.0000
            x O                30       z            0.0000      0.0000  29165.1220
            x O                31       x        29165.1220      0.0000      0.0000
            x O                31       y            0.0000  29165.1220      0.0000
            x O                31       z            0.0000      0.0000  29165.1220
            x O                32       x        29165.1220      0.0000      0.0000
            x O                32       y            0.0000  29165.1220      0.0000
            x O                32       z            0.0000      0.0000  29165.1220
            x O                33       x        29165.1220      0.0000      0.0000
            x O                33       y            0.0000  29165.1220      0.0000
            x O                33       z            0.0000      0.0000  29165.1220
            x O                34       x        29165.1220      0.0000      0.0000
            x O                34       y            0.0000  29165.1220      0.0000
            x O                34       z            0.0000      0.0000  29165.1220
            x O                35       x        29165.1220      0.0000      0.0000
            x O                35       y            0.0000  29165.1220      0.0000
            x O                35       z            0.0000      0.0000  29165.1220
            x O                36       x        29165.1220      0.0000      0.0000
            x O                36       y            0.0000  29165.1220      0.0000
            x O                36       z            0.0000      0.0000  29165.1220
            x O                37       x        29165.1220      0.0000      0.0000
            x O                37       y            0.0000  29165.1220      0.0000
            x O                37       z            0.0000      0.0000  29165.1220
            x O                38       x        29165.1220      0.0000      0.0000
            x O                38       y            0.0000  29165.1220      0.0000
            x O                38       z            0.0000      0.0000  29165.1220
            x O                39       x        29165.1220      0.0000      0.0000
            x O                39       y            0.0000  29165.1220      0.0000
            x O                39       z            0.0000      0.0000  29165.1220
            x O                40       x        29165.1220      0.0000      0.0000
            x O                40       y            0.0000  29165.1220      0.0000
            x O                40       z            0.0000      0.0000  29165.1220
            x O                41       x        29165.1220      0.0000      0.0000
            x O                41       y            0.0000  29165.1220      0.0000
            x O                41       z            0.0000      0.0000  29165.1220
            x O                42       x        29165.1220      0.0000      0.0000
            x O                42       y            0.0000  29165.1220      0.0000
            x O                42       z            0.0000      0.0000  29165.1220
            x O                43       x        29165.1220      0.0000      0.0000
            x O                43       y            0.0000  29165.1220      0.0000
            x O                43       z            0.0000      0.0000  29165.1220
            x O                44       x        29165.1220      0.0000      0.0000
            x O                44       y            0.0000  29165.1220      0.0000
            x O                44       z            0.0000      0.0000  29165.1220
            x O                45       x        29165.1220      0.0000      0.0000
            x O                45       y            0.0000  29165.1220      0.0000
            x O                45       z            0.0000      0.0000  29165.1220
            x O                46       x        29165.1220      0.0000      0.0000
            x O                46       y            0.0000  29165.1220      0.0000
            x O                46       z            0.0000      0.0000  29165.1220
            x O                47       x        29165.1220      0.0000      0.0000
            x O                47       y            0.0000  29165.1220      0.0000
            x O                47       z            0.0000      0.0000  29165.1220
            x O                48       x        29165.1220      0.0000      0.0000
            x O                48       y            0.0000  29165.1220      0.0000
            x O                48       z            0.0000      0.0000  29165.1220
            x O                49       x        29165.1220      0.0000      0.0000
            x O                49       y            0.0000  29165.1220      0.0000
            x O                49       z            0.0000      0.0000  29165.1220
            x O                50       x        29165.1220      0.0000      0.0000
            x O                50       y            0.0000  29165.1220      0.0000
            x O                50       z            0.0000      0.0000  29165.1220
            x O                51       x        29165.1220      0.0000      0.0000
            x O                51       y            0.0000  29165.1220      0.0000
            x O                51       z            0.0000      0.0000  29165.1220
            x O                52       x        29165.1220      0.0000      0.0000
            x O                52       y            0.0000  29165.1220      0.0000
            x O                52       z            0.0000      0.0000  29165.1220
[...]
             O 19  -- O 20                  -0.04        2.86663
             O 7   -- O 9                   -0.04        2.86663
             O 56  -- O 57                  -0.04        2.86663
             O 40  -- O 42                  -0.04        2.86701
             O 17  -- O 18                  -0.04        2.86701
             O 112 -- O 113                 -0.04        2.86701
             O 14  -- O 105                 -0.04        2.86915
             O 39  -- O 151                 -0.04        2.86915
             O 109 -- O 140                 -0.04        2.86915
             O 10  -- O 137                 -0.04        2.86922
             O 23  -- O 90                  -0.04        2.86922
             O 60  -- O 100                 -0.04        2.86922
             O 21  -- O 146                 -0.04        2.87084
             O 41  -- O 76                  -0.04        2.87084
             O 55  -- O 123                 -0.04        2.87085
             O 8   -- O 49                  -0.04        2.87085
             O 16  -- O 30                  -0.04        2.87085
             O 65  -- O 114                 -0.04        2.87085
             O 24  -- O 137                 -0.04        2.87135
             O 11  -- O 100                 -0.04        2.87135
             O 58  -- O 90                  -0.04        2.87135
             O 15  -- O 140                 -0.04        2.87159
             O 110 -- O 151                 -0.04        2.87159
             O 37  -- O 105                 -0.04        2.87160
             O 8   -- O 99                  -0.04        2.87165
             O 21  -- O 133                 -0.04        2.87165
             O 55  -- O 86                  -0.04        2.87165
             O 16  -- O 143                 -0.04        2.87179
             O 41  -- O 108                 -0.04        2.87179
             O 114 -- O 154                 -0.04        2.87179
             O 59  -- O 148                 -0.04        2.87302
             O 12  -- O 125                 -0.04        2.87302
             O 22  -- O 54                  -0.04        2.87302
             O 74  -- O 111                 -0.04        2.87311
             O 25  -- O 38                  -0.04        2.87312
             O 13  -- O 63                  -0.04        2.87312
             O 50  -- O 87                  -0.04        2.87315
             O 121 -- O 134                 -0.04        2.87315
             O 97  -- O 147                 -0.04        2.87315
             O 28  -- O 155                 -0.04        2.87317
             O 77  -- O 144                 -0.04        2.87317
             O 66  -- O 106                 -0.04        2.87317
             O 17  -- O 106                 -0.04        2.87347
             O 42  -- O 155                 -0.04        2.87347
             O 112 -- O 144                 -0.04        2.87347
             O 9   -- O 134                 -0.04        2.87350
             O 19  -- O 87                  -0.04        2.87350
             O 56  -- O 97                  -0.04        2.87351
             O 89  -- O 124                 -0.04        2.87365
             O 136 -- O 150                 -0.04        2.87365
             O 53  -- O 102                 -0.04        2.87365
             O 62  -- O 153                 -0.04        2.87367
             O 27  -- O 139                 -0.04        2.87367
             O 73  -- O 104                 -0.04        2.87368
             O 154 -- O 156                 -0.04        2.87398
             O 107 -- O 108                 -0.04        2.87398
             O 142 -- O 143                 -0.04        2.87398
             O 85  -- O 86                  -0.04        2.87399
             O 133 -- O 135                 -0.04        2.87399
             O 98  -- O 99                  -0.04        2.87399
             O 31  -- O 32                  -0.04        2.87412
             O 92  -- O 93                  -0.04        2.87412
             O 115 -- O 117                 -0.04        2.87412
             O 46  -- O 48                  -0.04        2.87418
             O 71  -- O 72                  -0.04        2.87418
             O 130 -- O 131                 -0.04        2.87419
             O 88  -- O 90                  -0.04        2.87459
             O 137 -- O 138                 -0.04        2.87459
             O 100 -- O 101                 -0.04        2.87460
             O 151 -- O 152                 -0.04        2.87464
             O 103 -- O 105                 -0.04        2.87464
             O 140 -- O 141                 -0.04        2.87464
             O 97  -- O 98                  -0.04        2.87473
             O 85  -- O 87                  -0.04        2.87473
             O 134 -- O 135                 -0.04        2.87473
             O 142 -- O 144                 -0.04        2.87478
             O 155 -- O 156                 -0.04        2.87478
             O 106 -- O 107                 -0.04        2.87479
             O 118 -- O 120                 -0.04        2.87519
             O 107 -- O 142                 -0.04        2.87519
             O 34  -- O 35                  -0.04        2.87519
             O 95  -- O 96                  -0.04        2.87519
             O 127 -- O 129                 -0.04        2.87520
             O 67  -- O 68                  -0.04        2.87520
             O 107 -- O 156                 -0.04        2.87520
             O 98  -- O 135                 -0.04        2.87520
             O 142 -- O 156                 -0.04        2.87520
             O 44  -- O 45                  -0.04        2.87520
             O 85  -- O 135                 -0.04        2.87520
             O 85  -- O 98                  -0.04        2.87520
             O 112 -- O 114                 -0.04        2.87526
             O 41  -- O 42                  -0.04        2.87526
             O 16  -- O 17                  -0.04        2.87526
             O 55  -- O 56                  -0.04        2.87533
             O 19  -- O 21                  -0.04        2.87533
             O 8   -- O 9                   -0.04        2.87533
             O 80  -- O 117                 -0.04        2.87553
             O 31  -- O 81                  -0.04        2.87553
             O 79  -- O 92                  -0.04        2.87554
             O 71  -- O 160                 -0.04        2.87555
             O 130 -- O 162                 -0.04        2.87555
             O 48  -- O 161                 -0.04        2.87555
             O 127 -- O 158                 -0.04        2.87571
             O 68  -- O 159                 -0.04        2.87571
             O 45  -- O 157                 -0.04        2.87571
             O 83  -- O 118                 -0.04        2.87571
             O 35  -- O 84                  -0.04        2.87571
             O 82  -- O 96                  -0.04        2.87571
             O 133 -- O 134                 -0.04        2.87582
             O 97  -- O 99                  -0.04        2.87582
             O 86  -- O 87                  -0.04        2.87582
             O 106 -- O 108                 -0.04        2.87584
             O 143 -- O 144                 -0.04        2.87585
             O 154 -- O 155                 -0.04        2.87585
             O 65  -- O 154                 -0.04        2.87607
             O 30  -- O 143                 -0.04        2.87607
             O 76  -- O 108                 -0.04        2.87608
             O 86  -- O 123                 -0.04        2.87610
             O 49  -- O 99                  -0.04        2.87610
             O 133 -- O 146                 -0.04        2.87610
             O 22  -- O 149                 -0.04        2.87623
             O 12  -- O 52                  -0.04        2.87624
             O 59  -- O 126                 -0.04        2.87624
             O 38  -- O 75                  -0.04        2.87632
             O 61  -- O 111                 -0.04        2.87633
             O 13  -- O 26                  -0.04        2.87633
             O 121 -- O 122                 -0.04        2.87652
             O 145 -- O 147                 -0.04        2.87652
             O 50  -- O 51                  -0.04        2.87652
             O 64  -- O 66                  -0.04        2.87660
             O 77  -- O 78                  -0.04        2.87661
             O 28  -- O 29                  -0.04        2.87661
             O 61  -- O 62                  -0.04        2.87675
             O 73  -- O 75                  -0.04        2.87675
             O 26  -- O 27                  -0.04        2.87675
             O 124 -- O 126                 -0.04        2.87676
             O 149 -- O 150                 -0.04        2.87676
             O 52  -- O 53                  -0.04        2.87676
             O 136 -- O 138                 -0.04        2.87726
             O 101 -- O 102                 -0.04        2.87726
             O 88  -- O 89                  -0.04        2.87726
             O 103 -- O 104                 -0.04        2.87728
             O 139 -- O 141                 -0.04        2.87729
             O 152 -- O 153                 -0.04        2.87729
             O 27  -- O 152                 -0.04        2.87760
             O 53  -- O 88                  -0.04        2.87760
             O 73  -- O 141                 -0.04        2.87760
             O 62  -- O 103                 -0.04        2.87760
             O 101 -- O 150                 -0.04        2.87760
             O 124 -- O 138                 -0.04        2.87760
             O 160 -- O 162                 -0.04        2.87762
             O 161 -- O 162                 -0.04        2.87762
             O 160 -- O 161                 -0.04        2.87762
             O 79  -- O 80                  -0.04        2.87764
             O 79  -- O 81                  -0.04        2.87764
             O 80  -- O 81                  -0.04        2.87765
             O 101 -- O 136                 -0.04        2.87783
             O 104 -- O 141                 -0.04        2.87783
             O 139 -- O 152                 -0.04        2.87784
             O 88  -- O 102                 -0.04        2.87784
             O 103 -- O 153                 -0.04        2.87784
             O 89  -- O 138                 -0.04        2.87784
             O 26  -- O 63                  -0.04        2.87797
             O 54  -- O 149                 -0.04        2.87797
             O 52  -- O 125                 -0.04        2.87797
             O 25  -- O 75                  -0.04        2.87798
             O 126 -- O 148                 -0.04        2.87798
             O 61  -- O 74                  -0.04        2.87798
             O 49  -- O 50                  -0.04        2.87802
             O 146 -- O 147                 -0.04        2.87802
             O 121 -- O 123                 -0.04        2.87803
             O 28  -- O 30                  -0.04        2.87806
             O 65  -- O 66                  -0.04        2.87807
             O 76  -- O 77                  -0.04        2.87807
             O 29  -- O 64                  -0.04        2.87833
             O 29  -- O 78                  -0.04        2.87833
             O 64  -- O 78                  -0.04        2.87833
             O 51  -- O 122                 -0.04        2.87845
             O 51  -- O 145                 -0.04        2.87845
             O 122 -- O 145                 -0.04        2.87845
             O 145 -- O 146                 -0.04        2.87905
             O 49  -- O 51                  -0.04        2.87906
             O 122 -- O 123                 -0.04        2.87906
             O 76  -- O 78                  -0.04        2.87908
             O 29  -- O 30                  -0.04        2.87908
             O 64  -- O 65                  -0.04        2.87908
             O 82  -- O 84                  -0.04        2.87920
             O 83  -- O 84                  -0.04        2.87920
             O 157 -- O 158                 -0.04        2.87920
             O 157 -- O 159                 -0.04        2.87920
             O 158 -- O 159                 -0.04        2.87920
             O 82  -- O 83                  -0.04        2.87920
             O 15  -- O 109                 -0.04        2.87939
             O 39  -- O 110                 -0.04        2.87939
             O 14  -- O 37                  -0.04        2.87939
             O 95  -- O 130                 -0.04        2.87981
             O 71  -- O 120                 -0.04        2.87981
             O 34  -- O 48                  -0.04        2.87981
             O 92  -- O 129                 -0.04        2.87984
             O 31  -- O 44                  -0.04        2.87984
             O 67  -- O 117                 -0.04        2.87984
             O 100 -- O 102                 -0.04        2.87990
             O 89  -- O 90                  -0.04        2.87990
             O 136 -- O 137                 -0.04        2.87991
             O 25  -- O 26                  -0.04        2.87994
             O 61  -- O 63                  -0.04        2.87994
             O 74  -- O 75                  -0.04        2.87995
             O 52  -- O 54                  -0.04        2.87995
             O 125 -- O 126                 -0.04        2.87996
             O 148 -- O 149                 -0.04        2.87996
             O 139 -- O 140                 -0.04        2.88000
             O 151 -- O 153                 -0.04        2.88000
             O 104 -- O 105                 -0.04        2.88000
             O 23  -- O 58                  -0.04        2.88001
             O 11  -- O 60                  -0.04        2.88002
             O 10  -- O 24                  -0.04        2.88002
             O 36  -- O 131                 -0.04        2.88003
             O 46  -- O 119                 -0.04        2.88003
             O 56  -- O 147                 -0.04        2.88004
             O 72  -- O 94                  -0.04        2.88004
             O 9   -- O 121                 -0.04        2.88004
             O 19  -- O 50                  -0.04        2.88004
             O 77  -- O 112                 -0.04        2.88005
             O 28  -- O 42                  -0.04        2.88005
             O 17  -- O 66                  -0.04        2.88005
             O 115 -- O 128                 -0.04        2.88013
             O 32  -- O 69                  -0.04        2.88013
             O 43  -- O 93                  -0.04        2.88013
             O 13  -- O 14                  -0.04        2.88021
             O 38  -- O 39                  -0.04        2.88021
             O 109 -- O 111                 -0.04        2.88021
             O 10  -- O 12                  -0.04        2.88024
             O 59  -- O 60                  -0.04        2.88024
             O 22  -- O 23                  -0.04        2.88024
             O 34  -- O 161                 -0.04        2.88102
             O 120 -- O 160                 -0.04        2.88102
             O 44  -- O 81                  -0.04        2.88102
             O 95  -- O 162                 -0.04        2.88102
             O 79  -- O 129                 -0.04        2.88103
             O 67  -- O 80                  -0.04        2.88103
             O 73  -- O 74                  -0.04        2.88121
             O 25  -- O 27                  -0.04        2.88121
             O 62  -- O 63                  -0.04        2.88122
             O 148 -- O 150                 -0.04        2.88125
             O 53  -- O 54                  -0.04        2.88125
             O 124 -- O 125                 -0.04        2.88125
             O 16  -- O 18                  -0.04        2.88236
             O 113 -- O 114                 -0.04        2.88236
             O 40  -- O 41                  -0.04        2.88236
             O 7   -- O 8                   -0.04        2.88247
             O 55  -- O 57                  -0.04        2.88247
             O 20  -- O 21                  -0.04        2.88247
             O 43  -- O 44                  -0.04        2.88252
             O 128 -- O 129                 -0.04        2.88253
             O 67  -- O 69                  -0.04        2.88253
             O 43  -- O 45                  -0.04        2.88266
             O 127 -- O 128                 -0.04        2.88267
             O 68  -- O 69                  -0.04        2.88267
             O 119 -- O 120                 -0.04        2.88268
             O 34  -- O 36                  -0.04        2.88268
             O 94  -- O 95                  -0.04        2.88268
             O 94  -- O 96                  -0.04        2.88289
             O 118 -- O 119                 -0.04        2.88289
             O 35  -- O 36                  -0.04        2.88290
             O 45  -- O 116                 -0.04        2.88371
             O 68  -- O 91                  -0.04        2.88372
             O 33  -- O 127                 -0.04        2.88372
             O 35  -- O 70                  -0.04        2.88378
             O 47  -- O 96                  -0.04        2.88378
             O 118 -- O 132                 -0.04        2.88378
             O 91  -- O 92                  -0.04        2.88397
             O 116 -- O 117                 -0.04        2.88397
             O 31  -- O 33                  -0.04        2.88398
             O 47  -- O 48                  -0.04        2.88416
             O 130 -- O 132                 -0.04        2.88416
             O 70  -- O 71                  -0.04        2.88416
             O 40  -- O 113                 -0.04        2.88940
             O 18  -- O 113                 -0.04        2.88940
             O 18  -- O 40                  -0.04        2.88940
             O 20  -- O 57                  -0.04        2.89023
             O 7   -- O 57                  -0.04        2.89023
             O 7   -- O 20                  -0.04        2.89023
             O 116 -- O 157                 -0.04        2.89135
             O 91  -- O 159                 -0.04        2.89135
             O 33  -- O 158                 -0.04        2.89135
             O 47  -- O 82                  -0.04        2.89155
             O 70  -- O 84                  -0.04        2.89156
             O 83  -- O 132                 -0.04        2.89156
             O 2   -- O 93                  -0.03        2.91012
             O 3   -- O 115                 -0.03        2.91013
             O 1   -- O 32                  -0.03        2.91014
             O 5   -- O 72                  -0.03        2.91073
             O 6   -- O 46                  -0.03        2.91073
             O 4   -- O 131                 -0.03        2.91074
======================================================================
 

Writing analysis data to nmr.castep_bin

Writing model to nmr.check
 
 A BibTeX formatted list of references used in this run has been written to 
 nmr.bib
 
Initialisation time =     13.02 s
Calculation time    =   3075.56 s
Finalisation time   =      9.62 s
Total time          =   3098.20 s
Peak Memory Use     = 6489660 kB
  
Overall parallel efficiency rating: Satisfactory (69%)                          
  
Data was distributed by:-
G-vector (20-way); efficiency rating: Satisfactory (69%)                        
k-point (4-way); efficiency rating: Excellent (99%)                             
  
Parallel notes:
1) SMP optimisations were used (num_proc_in_smp=0).                             
2) k-points were fully distributed.                                             
