 +-------------------------------------------------+
 |                                                 |
 |      CCC   AA    SSS  TTTTT  EEEEE  PPPP        |
 |     C     A  A  S       T    E      P   P       |
 |     C     AAAA   SS     T    EEE    PPPP        |
 |     C     A  A     S    T    E      P           |
 |      CCC  A  A  SSS     T    EEEEE  P           |
 |                                                 |
 +-------------------------------------------------+
 |                                                 |
 | Welcome to Academic Release CASTEP version 21.11|          
 | Ab Initio Total Energy Program                  |
 |                                                 |
 | Authors:                                        |
 | M. Segall, M. Probert, C. Pickard, P. Hasnip,   |
 | S. Clark, K. Refson, J. R. Yates, M. Payne      |
 |                                                 |
 | Contributors:                                   |
 | P. Lindan, P. Haynes, J. White, V. Milman,      |
 | N. Govind, M. Gibson, P. Tulip, V. Cocula,      |
 | B. Montanari, D. Quigley, M. Glover,            |
 | L. Bernasconi, A. Perlov, M. Plummer,           |
 | E. McNellis, J. Meyer, J. Gale, D. Jochym       |
 | J. Aarons, B. Walker, R. Gillen, D. Jones       |
 | T. Green, I. J. Bush, C. J. Armstrong,          |
 | E. J. Higgins, E. L. Brown, M. S. McFly,        |
 | J. Wilkins, B-C. Shih, P. J. P. Byrne,          |
 | R. J. Maurer, J. C. Womack, J. Dziedzic,        |
 | A. Bartok-Partay, L. LeBlanc                    |
 |                                                 |
 | Copyright (c) 2000 - 2021                       |
 |                                                 |
 |     Distributed under license from Cambridge    |
 |     Enterprise for academic use only.           |
 |                                                 |
 | Please cite                                     |
 |                                                 |
 |     "First principles methods using CASTEP"     |
 |                                                 |
 |         Zeitschrift fuer Kristallographie       |
 |           220(5-6) pp. 567-570 (2005)           |
 |                                                 |
 | S. J. Clark, M. D. Segall, C. J. Pickard,       |
 | P. J. Hasnip, M. J. Probert, K. Refson,         |
 | M. C. Payne                                     |
 |                                                 |
 |       in all publications arising from          |
 |              your use of CASTEP                 |
 |                                                 |
 +-------------------------------------------------+
 |                                                 |
 |              http://www.castep.org              |
 |                                                 |
 +-------------------------------------------------+



 Compiled for linux_x86_64_gfortran10 on Fri, 14 Jan 2022 16:49:15 +0000
 from code version Version unavailable
 Compiler: GNU Fortran 10.3.0; Optimisation: fast
 MATHLIBS: openblas (LAPACK version 3.9.0)
 FFT Lib : fftw3 version fftw-3.3.10-sse2-avx-avx2-avx2_128-avx512
 Fundamental constants values: CODATA 2014

 Run started: Tue, 16 Aug 2022 11:53:55 +0100

 ******************************* User Parameters *******************************
iprint                 : 2                                        # verbosity control (I)
reuse                  : al2o3_xc-PBESOL_c-0900_k-5x5x5_nmr.check # reuse filename (S)
task                   : Spectral                                 # type of calculation (S)
optstrategy            : speed                                    # optimization strategy (S)
xcfunctional           : pbesol                                   # exchange-correlation functional (S)
cutoffenergy           : 900.0000000 ev                           # maximum energy of planewaves in basis set (P)
numdumpcycles          : 0                                        # frequency of wavefunction dumps (I)
pdoscalculateweights   : T                                        # partial DOS analysis on/off (L)
spectraltask           : dos                                      # type of spectrum to calculate (S)
spectralpercextrabands : 100.0000000                              # percentage of extra spectral bands (R)

 *******************************************************************************
  

 Atomic calculation performed for O: 1s2 2s2 2p4

 Converged in 57 iterations to an ae energy of -2034.019 eV

    == Comparison of all-electron and pseudo eig ===
    ==         taken from descreening step.      ===
    == A more accurate error estimate is given   ===
    == by using the scf pseudo test -            ===
    == add [] to end of otfg string to activate  ===
    AE l  no    occ        eig (Ha)                 
    PS l  no               eig (Ha)         diff    
    ================================================
    ae 0   2   2.000    -0.8749487920
    ps 0   2            -0.8749599405    -0.1115E-04
    ae 1   1   4.000    -0.3297966080
    ps 1   1            -0.3298023493    -0.5741E-05
    ================================================
   ============================================================                
   | Pseudopotential Report - Date of generation 16-08-2022   |                
   ------------------------------------------------------------                
   | Element: O Ionic charge:  6.00 Level of theory: PBESOL   |                
   | Atomic Solver: Koelling-Harmon                           |                
   |                                                          |                
   |               Reference Electronic Structure             |                
   |         Orbital         Occupation         Energy        |                
   |            2s              2.000           -0.875        |                
   |            2p              4.000           -0.330        |                
   |                                                          |                
   |                 Pseudopotential Definition               |                
   |        Beta     l      e      Rc     scheme   norm       |                
   |          1      0   -0.875   1.100     qc      0         |                
   |          2      0    0.250   1.100     qc      0         |                
   |          3      1   -0.330   1.100     qc      0         |                
   |          4      1    0.250   1.100     qc      0         |                
   |         loc     2    0.000   1.100     pn      0         |                
   |                                                          |                
   | Augmentation charge Rinner = 0.769                       |                
   | Partial core correction Rc = 0.769                       |                
   ------------------------------------------------------------                
   | "2|1.1|17|20|23|20:21(qc=8)"                             |                
   ------------------------------------------------------------                
   |      Author: Chris J. Pickard, Cambridge University      |                
   ============================================================                

 Atomic calculation performed for Al: 1s2 2s2 2p6 3s2 3p1

 Converged in 55 iterations to an ae energy of -6590.489 eV

    == Comparison of all-electron and pseudo eig ===
    ==         taken from descreening step.      ===
    == A more accurate error estimate is given   ===
    == by using the scf pseudo test -            ===
    == add [] to end of otfg string to activate  ===
    AE l  no    occ        eig (Ha)                 
    PS l  no               eig (Ha)         diff    
    ================================================
    ae 0   3   2.000    -0.2835226939
    ps 0   3            -0.2835236172    -0.9233E-06
    ae 1   2   1.000    -0.0988403377
    ps 1   2            -0.0988400873     0.2504E-06
    ================================================
   ============================================================                
   | Pseudopotential Report - Date of generation 16-08-2022   |                
   ------------------------------------------------------------                
   | Element: Al Ionic charge:  3.00 Level of theory: PBESOL  |                
   | Atomic Solver: Koelling-Harmon                           |                
   |                                                          |                
   |               Reference Electronic Structure             |                
   |         Orbital         Occupation         Energy        |                
   |            3s              2.000           -0.284        |                
   |            3p              1.000           -0.099        |                
   |                                                          |                
   |                 Pseudopotential Definition               |                
   |        Beta     l      e      Rc     scheme   norm       |                
   |          1      0   -0.284   2.192     qc      0         |                
   |          2      0    0.250   2.192     qc      0         |                
   |          3      1   -0.099   2.192     qc      0         |                
   |          4      1    0.250   2.192     qc      0         |                
   |          5      2    0.000   2.000     qc      0         |                
   |          6      2    0.250   2.000     qc      0         |                
   |         loc     3    0.000   2.192     pn      0         |                
   |                                                          |                
   | Augmentation charge Rinner = 1.398                       |                
   | Partial core correction Rc = 1.398                       |                
   ------------------------------------------------------------                
   | "3|2.2|2.2|1.4|4|5|5|30:31:32U2U2"                       |                
   ------------------------------------------------------------                
   |      Author: Chris J. Pickard, Cambridge University      |                
   ============================================================                

 Pseudo atomic calculation performed for O 2s2 2p4

 Converged in 14 iterations to a total energy of -431.1291 eV

 Pseudo atomic calculation performed for Al 3s2 3p1

 Converged in 11 iterations to a total energy of -105.9172 eV
Initialising basis set.

Standard grid dimensions:  45  45  45
Fine grid dimensions:      45  45  45

G-vector group:   1
 X-columns:
Process  Num. Cols.  Num. Fine Cols.  Num Weight. Cols.  Num Fine Weight. Cols.
   1         507              507                109                     109
   2         506              506                110                     110
   3         506              506                110                     110
   4         506              506                110                     110
Total       2025             2025                439                     439
 Y-columns:
Process  Num. Cols.  Num. Fine Cols.  Num Weight. Cols.  Num Fine Weight. Cols.
   1         507              507                282                     282
   2         506              506                281                     281
   3         506              506                281                     281
   4         506              506                281                     281
Total       2025             2025               1125                    1125
 Z-columns:
Process  Num. Cols.  Num. Fine Cols.  Num Weight. Cols.  Num Fine Weight. Cols.
   1         507              507                507                     507
   2         506              506                506                     506
   3         506              506                506                     506
   4         506              506                506                     506
Total       2025             2025               2025                    2025

Plane wave load balancing: max   1330 min   1293 average   1311
True cut-off energy of basis :  33.074
 Reusing data from model file al2o3_xc-PBESOL_c-0900_k-5x5x5_nmr.check
 +-------------------------------------------------+
 |                                                 |
 |      CCC   AA    SSS  TTTTT  EEEEE  PPPP        |
 |     C     A  A  S       T    E      P   P       |
 |     C     AAAA   SS     T    EEE    PPPP        |
 |     C     A  A     S    T    E      P           |
 |      CCC  A  A  SSS     T    EEEEE  P           |
 |                                                 |
 +-------------------------------------------------+
 |                                                 |
 | Welcome to Academic Release CASTEP version 21.11|          
 | Ab Initio Total Energy Program                  |
 |                                                 |
 | Authors:                                        |
 | M. Segall, M. Probert, C. Pickard, P. Hasnip,   |
 | S. Clark, K. Refson, J. R. Yates, M. Payne      |
 |                                                 |
 | Contributors:                                   |
 | P. Lindan, P. Haynes, J. White, V. Milman,      |
 | N. Govind, M. Gibson, P. Tulip, V. Cocula,      |
 | B. Montanari, D. Quigley, M. Glover,            |
 | L. Bernasconi, A. Perlov, M. Plummer,           |
 | E. McNellis, J. Meyer, J. Gale, D. Jochym       |
 | J. Aarons, B. Walker, R. Gillen, D. Jones       |
 | T. Green, I. J. Bush, C. J. Armstrong,          |
 | E. J. Higgins, E. L. Brown, M. S. McFly,        |
 | J. Wilkins, B-C. Shih, P. J. P. Byrne,          |
 | R. J. Maurer, J. C. Womack, J. Dziedzic,        |
 | A. Bartok-Partay, L. LeBlanc                    |
 |                                                 |
 | Copyright (c) 2000 - 2021                       |
 |                                                 |
 |     Distributed under license from Cambridge    |
 |     Enterprise for academic use only.           |
 |                                                 |
 | Please cite                                     |
 |                                                 |
 |     "First principles methods using CASTEP"     |
 |                                                 |
 |         Zeitschrift fuer Kristallographie       |
 |           220(5-6) pp. 567-570 (2005)           |
 |                                                 |
 | S. J. Clark, M. D. Segall, C. J. Pickard,       |
 | P. J. Hasnip, M. J. Probert, K. Refson,         |
 | M. C. Payne                                     |
 |                                                 |
 |       in all publications arising from          |
 |              your use of CASTEP                 |
 |                                                 |
 +-------------------------------------------------+
 |                                                 |
 |              http://www.castep.org              |
 |                                                 |
 +-------------------------------------------------+



 Compiled for linux_x86_64_gfortran10 on Fri, 14 Jan 2022 16:49:15 +0000
 from code version Version unavailable
 Compiler: GNU Fortran 10.3.0; Optimisation: fast
 MATHLIBS: openblas (LAPACK version 3.9.0)
 FFT Lib : fftw3 version fftw-3.3.10-sse2-avx-avx2-avx2_128-avx512
 Fundamental constants values: CODATA 2014

 Run started: Tue, 16 Aug 2022 11:55:16 +0100

 ******************************* User Parameters *******************************
iprint                 : 2                                        # verbosity control (I)
reuse                  : al2o3_xc-PBESOL_c-0900_k-5x5x5_nmr.check # reuse filename (S)
task                   : Spectral                                 # type of calculation (S)
optstrategy            : speed                                    # optimization strategy (S)
xcfunctional           : pbesol                                   # exchange-correlation functional (S)
cutoffenergy           : 900.0000000 ev                           # maximum energy of planewaves in basis set (P)
numdumpcycles          : 0                                        # frequency of wavefunction dumps (I)
pdoscalculateweights   : T                                        # partial DOS analysis on/off (L)
spectraltask           : dos                                      # type of spectrum to calculate (S)
spectralpercextrabands : 80.0000000                               # percentage of extra spectral bands (R)

 *******************************************************************************
  

 Atomic calculation performed for O: 1s2 2s2 2p4

 Converged in 57 iterations to an ae energy of -2034.019 eV

    == Comparison of all-electron and pseudo eig ===
    ==         taken from descreening step.      ===
    == A more accurate error estimate is given   ===
    == by using the scf pseudo test -            ===
    == add [] to end of otfg string to activate  ===
    AE l  no    occ        eig (Ha)                 
    PS l  no               eig (Ha)         diff    
    ================================================
    ae 0   2   2.000    -0.8749487920
    ps 0   2            -0.8749599405    -0.1115E-04
    ae 1   1   4.000    -0.3297966080
    ps 1   1            -0.3298023493    -0.5741E-05
    ================================================
   ============================================================                
   | Pseudopotential Report - Date of generation 16-08-2022   |                
   ------------------------------------------------------------                
   | Element: O Ionic charge:  6.00 Level of theory: PBESOL   |                
   | Atomic Solver: Koelling-Harmon                           |                
   |                                                          |                
   |               Reference Electronic Structure             |                
   |         Orbital         Occupation         Energy        |                
   |            2s              2.000           -0.875        |                
   |            2p              4.000           -0.330        |                
   |                                                          |                
   |                 Pseudopotential Definition               |                
   |        Beta     l      e      Rc     scheme   norm       |                
   |          1      0   -0.875   1.100     qc      0         |                
   |          2      0    0.250   1.100     qc      0         |                
   |          3      1   -0.330   1.100     qc      0         |                
   |          4      1    0.250   1.100     qc      0         |                
   |         loc     2    0.000   1.100     pn      0         |                
   |                                                          |                
   | Augmentation charge Rinner = 0.769                       |                
   | Partial core correction Rc = 0.769                       |                
   ------------------------------------------------------------                
   | "2|1.1|17|20|23|20:21(qc=8)"                             |                
   ------------------------------------------------------------                
   |      Author: Chris J. Pickard, Cambridge University      |                
   ============================================================                

 Atomic calculation performed for Al: 1s2 2s2 2p6 3s2 3p1

 Converged in 55 iterations to an ae energy of -6590.489 eV

    == Comparison of all-electron and pseudo eig ===
    ==         taken from descreening step.      ===
    == A more accurate error estimate is given   ===
    == by using the scf pseudo test -            ===
    == add [] to end of otfg string to activate  ===
    AE l  no    occ        eig (Ha)                 
    PS l  no               eig (Ha)         diff    
    ================================================
    ae 0   3   2.000    -0.2835226939
    ps 0   3            -0.2835236172    -0.9233E-06
    ae 1   2   1.000    -0.0988403377
    ps 1   2            -0.0988400873     0.2504E-06
    ================================================
   ============================================================                
   | Pseudopotential Report - Date of generation 16-08-2022   |                
   ------------------------------------------------------------                
   | Element: Al Ionic charge:  3.00 Level of theory: PBESOL  |                
   | Atomic Solver: Koelling-Harmon                           |                
   |                                                          |                
   |               Reference Electronic Structure             |                
   |         Orbital         Occupation         Energy        |                
   |            3s              2.000           -0.284        |                
   |            3p              1.000           -0.099        |                
   |                                                          |                
   |                 Pseudopotential Definition               |                
   |        Beta     l      e      Rc     scheme   norm       |                
   |          1      0   -0.284   2.192     qc      0         |                
   |          2      0    0.250   2.192     qc      0         |                
   |          3      1   -0.099   2.192     qc      0         |                
   |          4      1    0.250   2.192     qc      0         |                
   |          5      2    0.000   2.000     qc      0         |                
   |          6      2    0.250   2.000     qc      0         |                
   |         loc     3    0.000   2.192     pn      0         |                
   |                                                          |                
   | Augmentation charge Rinner = 1.398                       |                
   | Partial core correction Rc = 1.398                       |                
   ------------------------------------------------------------                
   | "3|2.2|2.2|1.4|4|5|5|30:31:32U2U2"                       |                
   ------------------------------------------------------------                
   |      Author: Chris J. Pickard, Cambridge University      |                
   ============================================================                

 Pseudo atomic calculation performed for O 2s2 2p4

 Converged in 14 iterations to a total energy of -431.1291 eV

 Pseudo atomic calculation performed for Al 3s2 3p1

 Converged in 11 iterations to a total energy of -105.9172 eV
Initialising basis set.

Standard grid dimensions:  45  45  45
Fine grid dimensions:      45  45  45

G-vector group:   1
 X-columns:
Process  Num. Cols.  Num. Fine Cols.  Num Weight. Cols.  Num Fine Weight. Cols.
   1         507              507                109                     109
   2         506              506                110                     110
   3         506              506                110                     110
   4         506              506                110                     110
Total       2025             2025                439                     439
 Y-columns:
Process  Num. Cols.  Num. Fine Cols.  Num Weight. Cols.  Num Fine Weight. Cols.
   1         507              507                282                     282
   2         506              506                281                     281
   3         506              506                281                     281
   4         506              506                281                     281
Total       2025             2025               1125                    1125
 Z-columns:
Process  Num. Cols.  Num. Fine Cols.  Num Weight. Cols.  Num Fine Weight. Cols.
   1         507              507                507                     507
   2         506              506                506                     506
   3         506              506                506                     506
   4         506              506                506                     506
Total       2025             2025               2025                    2025

Plane wave load balancing: max   1330 min   1293 average   1311
True cut-off energy of basis :  33.074
 Reusing data from model file al2o3_xc-PBESOL_c-0900_k-5x5x5_nmr.check

 ******************************* User Parameters *******************************
iprint                 : 2                                        # verbosity control (I)
reuse                  : al2o3_xc-PBESOL_c-0900_k-5x5x5_nmr.check # reuse filename (S)
task                   : Spectral                                 # type of calculation (S)
optstrategy            : speed                                    # optimization strategy (S)
xcfunctional           : pbesol                                   # exchange-correlation functional (S)
cutoffenergy           : 900.0000000 ev                           # maximum energy of planewaves in basis set (P)
numdumpcycles          : 0                                        # frequency of wavefunction dumps (I)
pdoscalculateweights   : T                                        # partial DOS analysis on/off (L)
spectraltask           : dos                                      # type of spectrum to calculate (S)
spectralpercextrabands : 80.0000000                               # percentage of extra spectral bands (R)

 *******************************************************************************
  

 Atomic calculation performed for O: 1s2 2s2 2p4

 Converged in 57 iterations to an ae energy of -2034.019 eV

    == Comparison of all-electron and pseudo eig ===
    ==         taken from descreening step.      ===
    == A more accurate error estimate is given   ===
    == by using the scf pseudo test -            ===
    == add [] to end of otfg string to activate  ===
    AE l  no    occ        eig (Ha)                 
    PS l  no               eig (Ha)         diff    
    ================================================
    ae 0   2   2.000    -0.8749487920
    ps 0   2            -0.8749599405    -0.1115E-04
    ae 1   1   4.000    -0.3297966080
    ps 1   1            -0.3298023493    -0.5741E-05
    ================================================
   ============================================================                
   | Pseudopotential Report - Date of generation 16-08-2022   |                
   ------------------------------------------------------------                
   | Element: O Ionic charge:  6.00 Level of theory: PBESOL   |                
   | Atomic Solver: Koelling-Harmon                           |                
   |                                                          |                
   |               Reference Electronic Structure             |                
   |         Orbital         Occupation         Energy        |                
   |            2s              2.000           -0.875        |                
   |            2p              4.000           -0.330        |                
   |                                                          |                
   |                 Pseudopotential Definition               |                
   |        Beta     l      e      Rc     scheme   norm       |                
   |          1      0   -0.875   1.100     qc      0         |                
   |          2      0    0.250   1.100     qc      0         |                
   |          3      1   -0.330   1.100     qc      0         |                
   |          4      1    0.250   1.100     qc      0         |                
   |         loc     2    0.000   1.100     pn      0         |                
   |                                                          |                
   | Augmentation charge Rinner = 0.769                       |                
   | Partial core correction Rc = 0.769                       |                
   ------------------------------------------------------------                
   | "2|1.1|17|20|23|20:21(qc=8)"                             |                
   ------------------------------------------------------------                
   |      Author: Chris J. Pickard, Cambridge University      |                
   ============================================================                

 Atomic calculation performed for Al: 1s2 2s2 2p6 3s2 3p1

 Converged in 55 iterations to an ae energy of -6590.489 eV

    == Comparison of all-electron and pseudo eig ===
    ==         taken from descreening step.      ===
    == A more accurate error estimate is given   ===
    == by using the scf pseudo test -            ===
    == add [] to end of otfg string to activate  ===
    AE l  no    occ        eig (Ha)                 
    PS l  no               eig (Ha)         diff    
    ================================================
    ae 0   3   2.000    -0.2835226939
    ps 0   3            -0.2835236172    -0.9233E-06
    ae 1   2   1.000    -0.0988403377
    ps 1   2            -0.0988400873     0.2504E-06
    ================================================
   ============================================================                
   | Pseudopotential Report - Date of generation 16-08-2022   |                
   ------------------------------------------------------------                
   | Element: Al Ionic charge:  3.00 Level of theory: PBESOL  |                
   | Atomic Solver: Koelling-Harmon                           |                
   |                                                          |                
   |               Reference Electronic Structure             |                
   |         Orbital         Occupation         Energy        |                
   |            3s              2.000           -0.284        |                
   |            3p              1.000           -0.099        |                
   |                                                          |                
   |                 Pseudopotential Definition               |                
   |        Beta     l      e      Rc     scheme   norm       |                
   |          1      0   -0.284   2.192     qc      0         |                
   |          2      0    0.250   2.192     qc      0         |                
   |          3      1   -0.099   2.192     qc      0         |                
   |          4      1    0.250   2.192     qc      0         |                
   |          5      2    0.000   2.000     qc      0         |                
   |          6      2    0.250   2.000     qc      0         |                
   |         loc     3    0.000   2.192     pn      0         |                
   |                                                          |                
   | Augmentation charge Rinner = 1.398                       |                
   | Partial core correction Rc = 1.398                       |                
   ------------------------------------------------------------                
   | "3|2.2|2.2|1.4|4|5|5|30:31:32U2U2"                       |                
   ------------------------------------------------------------                
   |      Author: Chris J. Pickard, Cambridge University      |                
   ============================================================                

 Pseudo atomic calculation performed for O 2s2 2p4

 Converged in 14 iterations to a total energy of -431.1291 eV

 Pseudo atomic calculation performed for Al 3s2 3p1

 Converged in 11 iterations to a total energy of -105.9172 eV
Initialising basis set.

Standard grid dimensions:  45  45  45
Fine grid dimensions:      45  45  45

G-vector group:   1
 X-columns:
Process  Num. Cols.  Num. Fine Cols.  Num Weight. Cols.  Num Fine Weight. Cols.
   1         507              507                109                     109
   2         506              506                110                     110
   3         506              506                110                     110
   4         506              506                110                     110
Total       2025             2025                439                     439
 Y-columns:
Process  Num. Cols.  Num. Fine Cols.  Num Weight. Cols.  Num Fine Weight. Cols.
   1         507              507                282                     282
   2         506              506                281                     281
   3         506              506                281                     281
   4         506              506                281                     281
Total       2025             2025               1125                    1125
 Z-columns:
Process  Num. Cols.  Num. Fine Cols.  Num Weight. Cols.  Num Fine Weight. Cols.
   1         507              507                507                     507
   2         506              506                506                     506
   3         506              506                506                     506
   4         506              506                506                     506
Total       2025             2025               2025                    2025

Plane wave load balancing: max   1330 min   1293 average   1311
True cut-off energy of basis :  33.074
K-point set unchanged, read in wavefunction.
Reusing density from model file.
 Calculation parallelised over 4 processes.
 Data is distributed by G-vector(4-way)

 ************************************ Title ************************************
 

 ***************************** General Parameters ******************************
  
 output verbosity                               : verbose (2)
 reusing                                        : al2o3_xc-PBESOL_c-0900_k-5x5x5_nmr.check
 write checkpoint data to                       : al2o3_xc-PBESOL_c-0900_k-5x5x5_dos.check
 type of calculation                            : Electronic Spectroscopy
 stress calculation                             : off
 density difference calculation                 : off
 electron localisation func (ELF) calculation   : off
 Hirshfeld analysis                             : off
 polarisation (Berry phase) analysis            : off
 molecular orbital projected DOS                : off
 deltaSCF calculation                           : off
 unlimited duration calculation
 timing information                             : on
 memory usage estimate                          : on
 write extra output files                       : on
 write final potential to formatted file        : off
 write final density to formatted file          : off
 write BibTeX reference list                    : on
 write OTFG pseudopotential files               : on
 write electrostatic potential file             : on
 write bands file                               : on
 checkpoint writing                             : both castep_bin and check files
  
 output         length unit                     : A
 output           mass unit                     : amu
 output           time unit                     : ps
 output         charge unit                     : e
 output           spin unit                     : hbar/2
 output         energy unit                     : eV
 output          force unit                     : eV/A
 output       velocity unit                     : A/ps
 output       pressure unit                     : GPa
 output     inv_length unit                     : 1/A
 output      frequency unit                     : cm-1
 output force constant unit                     : eV/A**2
 output         volume unit                     : A**3
 output   IR intensity unit                     : (D/A)**2/amu
 output         dipole unit                     : D
 output         efield unit                     : eV/A/e
 output        entropy unit                     : J/mol/K
 output    efield chi2 unit                     : pm/V
  
 wavefunctions paging                           : none
 random number generator seed                   : randomised (115522453)
 data distribution                              : optimal for this architecture
 optimization strategy                          : maximize speed(+++)

 *********************** Exchange-Correlation Parameters ***********************
  
 using functional                               : PBE for solids (2008)
 relativistic treatment                         : Koelling-Harmon
 DFT+D: Semi-empirical dispersion correction    : off

 ************************* Pseudopotential Parameters **************************
  
 pseudopotential representation                 : reciprocal space
 <beta|phi> representation                      : reciprocal space
 spin-orbit coupling                            : off

 **************************** Basis Set Parameters *****************************
  
 plane wave basis set cut-off                   :   900.0000   eV
 size of standard grid                          :     1.7500
 size of   fine   gmax                          :    26.8966   1/A
 finite basis set correction                    : none

 **************************** Electronic Parameters ****************************
  
 number of  electrons                           :  48.00    
 net charge of system                           :  0.000    
 treating system as non-spin-polarized
 number of bands                                :         29

 ********************* Electronic Minimization Parameters **********************
  
 Method: Treating system as metallic with density mixing treatment of electrons,
         and number of  SD  steps               :          1
         and number of  CG  steps               :          4
  
 total energy / atom convergence tol.           : 0.1000E-04   eV
 eigen-energy convergence tolerance             : 0.1000E-05   eV
 max force / atom convergence tol.              : ignored
 convergence tolerance window                   :          3   cycles
 max. number of SCF cycles                      :         30
 number of fixed-spin iterations                :         10
 smearing scheme                                : Gaussian
 smearing width                                 : 0.2000       eV
 Fermi energy convergence tolerance             : 0.2721E-13   eV
 periodic dipole correction                     : NONE

 ************************** Density Mixing Parameters **************************
  
 density-mixing scheme                          : Broyden
 max. length of mixing history                  :         20
 charge density mixing amplitude                : 0.8000    
 cut-off energy for mixing                      :  900.0       eV

 *********************** Population Analysis Parameters ************************
  
 Population analysis with cutoff                :  3.000       A
 Population analysis output                     : summary and pdos components
 Partial DOS weights calculated

 ********************* Electronic Spectroscopy Parameters **********************
  
 electronic spectroscopy with theory level      : DFT       
 spectroscopy calculation                       : density of states
 max. number of iterations                      :         60
 max. steps per iteration                       :          5
 number of bands / k-point                      :         43
 band convergence tolerance                     : 0.1000E-05   eV
 write orbitals file                            : off

 *******************************************************************************
  

                           -------------------------------
                                      Unit Cell
                           -------------------------------
        Real Lattice(A)                      Reciprocal Lattice(1/A)
     2.3861830     1.3776650     4.3375540        1.316576930   0.760124873   0.482851484
    -2.3861800     1.3776620     4.3375540       -1.316577886   0.760126466   0.482851889
    -0.0000010    -2.7553270     4.3375530        0.000000956  -1.520251689   0.482851686

                       Lattice parameters(A)       Cell Angles
                    a =      5.138697          alpha =   55.337042
                    b =      5.138695          beta  =   55.337093
                    c =      5.138696          gamma =   55.337035

                       Current cell volume =            85.554476       A**3
                                   density =             2.383541   AMU/A**3
                                           =             3.957962     g/cm^3

                           -------------------------------
                                     Cell Contents
                           -------------------------------
                         Total number of ions in cell =   10
                      Total number of species in cell =    2
                        Max number of any one species =    6

            xxxxxxxxxxxxxxxxxxxxxxxxxxxxxxxxxxxxxxxxxxxxxxxxxxxxxxxxxxxx
            x  Element    Atom        Fractional coordinates of atoms  x
            x            Number           u          v          w      x
            x----------------------------------------------------------x
            x  O            1         0.556103   0.943897   0.250000   x 
            x  O            2         0.943897   0.250000   0.556103   x 
            x  O            3         0.250000   0.556103   0.943897   x 
            x  O            4         0.056103   0.750000   0.443897   x 
            x  O            5         0.750000   0.443897   0.056103   x 
            x  O            6         0.443897   0.056103   0.750000   x 
            x  Al           1         0.147922   0.147922   0.147922   x 
            x  Al           2         0.647922   0.647922   0.647922   x 
            x  Al           3         0.852078   0.852078   0.852078   x 
            x  Al           4         0.352078   0.352078   0.352078   x 
            xxxxxxxxxxxxxxxxxxxxxxxxxxxxxxxxxxxxxxxxxxxxxxxxxxxxxxxxxxxx


                         No user defined ionic velocities

                           -------------------------------
                                   Details of Species
                           -------------------------------

                               Mass of species in AMU
                                    O   15.9994000
                                    Al   26.9815400

                          Electric Quadrupole Moment (Barn)
                                    O   -0.0255800 Isotope 17
                                    Al    0.1466000 Isotope 27

                          Files used for pseudopotentials:
                                    O 2|1.1|17|20|23|20:21(qc=8)
                                    Al 3|2.2|2.2|1.4|4|5|5|30:31:32U2U2

                           -------------------------------
                              k-Points For BZ Sampling
                           -------------------------------
                       MP grid size for SCF calculation is  5  5  5
                            with an offset of   0.000  0.000  0.000
                       Number of kpoints used =            19

             +++++++++++++++++++++++++++++++++++++++++++++++++++++++
             +  Number       Fractional coordinates        Weight  +
             +-----------------------------------------------------+
             +     1  -0.400000   0.000000  -0.200000   0.0960000  +
             +     2  -0.400000   0.200000   0.000000   0.0960000  +
             +     3  -0.400000   0.200000   0.400000   0.0960000  +
             +     4  -0.400000   0.400000  -0.400000   0.0480000  +
             +     5  -0.200000  -0.200000  -0.200000   0.0160000  +
             +     6  -0.200000   0.400000   0.200000   0.0960000  +
             +     7   0.000000  -0.400000   0.400000   0.0480000  +
             +     8   0.000000   0.000000   0.000000   0.0080000  +
             +     9   0.000000   0.200000   0.000000   0.0480000  +
             +    10   0.000000   0.200000   0.200000   0.0480000  +
             +    11   0.000000   0.400000   0.000000   0.0480000  +
             +    12   0.000000   0.400000   0.400000   0.0480000  +
             +    13   0.200000  -0.400000  -0.400000   0.0480000  +
             +    14   0.200000  -0.400000   0.200000   0.0480000  +
             +    15   0.200000  -0.200000  -0.200000   0.0480000  +
             +    16   0.200000  -0.200000   0.000000   0.0480000  +
             +    17   0.200000   0.400000   0.200000   0.0480000  +
             +    18   0.200000   0.400000   0.400000   0.0480000  +
             +    19   0.400000   0.400000   0.400000   0.0160000  +
             +++++++++++++++++++++++++++++++++++++++++++++++++++++++

                           -------------------------------
                               Symmetry and Constraints
                           -------------------------------

                      Maximum deviation from symmetry = 0.204665E-14     ANG

                      Number of symmetry operations   =          12
                      Number of ionic constraints     =           3
                      Point group of crystal =    20: D3d, -3m, -3 2/m
                      Space group of crystal =   167: R-3c, -R 3 2"c

                    1 rotation    
                 (   1.00000000000   0.00000000000   0.00000000000 )
                 (   0.00000000000   1.00000000000   0.00000000000 )
                 (  -0.00000000000   0.00000000000   1.00000000000 )
                    1 displacement
                 (   0.00000000000   0.00000000000   0.00000000000 )
                      symmetry related atoms: 
             O:    1    2    3    4    5    6
             Al:    1    2    3    4

                    2 rotation    
                 (  -1.00000000000  -0.00000000000  -0.00000000000 )
                 (  -0.00000000000  -1.00000000000  -0.00000000000 )
                 (   0.00000000000  -0.00000000000  -1.00000000000 )
                    2 displacement
                 (   0.99999975204  -0.00000000000   0.99999987602 )
                      symmetry related atoms: 
             O:    6    4    5    2    3    1
             Al:    3    4    1    2

                    3 rotation    
                 (  -0.49999893175   0.86602601269   0.00000020954 )
                 (  -0.86602479488  -0.50000106825  -0.00000036293 )
                 (   0.00000023054  -0.00000013311   1.00000000000 )
                    3 displacement
                 (   0.99999993801   0.00000012398   0.99999993801 )
                      symmetry related atoms: 
             O:    3    1    2    6    4    5
             Al:    1    2    3    4

                    4 rotation    
                 (   0.49999893175  -0.86602601269  -0.00000020954 )
                 (   0.86602479488   0.50000106825   0.00000036293 )
                 (  -0.00000023054   0.00000013311  -1.00000000000 )
                    4 displacement
                 (   0.99999981403   0.99999987602   0.99999993801 )
                      symmetry related atoms: 
             O:    5    6    4    1    2    3
             Al:    3    4    1    2

                    5 rotation    
                 (  -0.50000106825  -0.86602601269  -0.00000020954 )
                 (   0.86602479488  -0.49999893175  -0.00000036293 )
                 (   0.00000023054   0.00000013311   1.00000000000 )
                    5 displacement
                 (   0.99999987602   0.00000006199   0.00000006199 )
                      symmetry related atoms: 
             O:    2    3    1    5    6    4
             Al:    1    2    3    4

                    6 rotation    
                 (   0.50000106825   0.86602601269   0.00000020954 )
                 (  -0.86602479488   0.49999893175   0.00000036293 )
                 (  -0.00000023054  -0.00000013311  -1.00000000000 )
                    6 displacement
                 (   0.99999987602   0.99999993801   0.99999981403 )
                      symmetry related atoms: 
             O:    4    5    6    3    1    2
             Al:    3    4    1    2

                    7 rotation    
                 (  -0.50000002055   0.86602538407   0.00000020954 )
                 (   0.86602539977   0.50000002055   0.00000036293 )
                 (  -0.00000007685  -0.00000013311  -1.00000000000 )
                    7 displacement
                 (   0.49999981403   0.50000000000   0.49999981403 )
                      symmetry related atoms: 
             O:    3    2    1    4    6    5
             Al:    4    3    2    1

                    8 rotation    
                 (   0.50000002055  -0.86602538407  -0.00000020954 )
                 (  -0.86602539977  -0.50000002055  -0.00000036293 )
                 (   0.00000007685   0.00000013311   1.00000000000 )
                    8 displacement
                 (   0.49999993801   0.50000000000   0.50000006199 )
                      symmetry related atoms: 
             O:    5    4    6    2    1    3
             Al:    2    1    4    3

                    9 rotation    
                 (   1.00000000000   0.00000125724  -0.00000000000 )
                 (  -0.00000120978  -1.00000000000  -0.00000000000 )
                 (  -0.00000030739  -0.00000000000  -1.00000000000 )
                    9 displacement
                 (   0.49999987602   0.49999987602   0.49999987602 )
                      symmetry related atoms: 
             O:    1    3    2    5    4    6
             Al:    4    3    2    1

                   10 rotation    
                 (  -1.00000000000  -0.00000125724   0.00000000000 )
                 (   0.00000120978   1.00000000000   0.00000000000 )
                 (   0.00000030739   0.00000000000   1.00000000000 )
                   10 displacement
                 (   0.49999987602   0.50000012398   0.50000000000 )
                      symmetry related atoms: 
             O:    6    5    4    3    2    1
             Al:    2    1    4    3

                   11 rotation    
                 (  -0.49999997945  -0.86602664131  -0.00000020954 )
                 (  -0.86602418999   0.49999997945   0.00000036293 )
                 (  -0.00000007685   0.00000013311  -1.00000000000 )
                   11 displacement
                 (   0.49999975204   0.49999993801   0.49999993801 )
                      symmetry related atoms: 
             O:    2    1    3    6    5    4
             Al:    4    3    2    1

                   12 rotation    
                 (   0.49999997945   0.86602664131   0.00000020954 )
                 (   0.86602418999  -0.49999997945  -0.00000036293 )
                 (   0.00000007685  -0.00000013311   1.00000000000 )
                   12 displacement
                 (   0.50000000000   0.50000006199   0.49999993801 )
                      symmetry related atoms: 
             O:    4    6    5    1    3    2
             Al:    2    1    4    3


                         Centre of mass is constrained

            xxxxxxxxxxxxxxxxxxxxxxxxxxxxxxxxxxxxxxxxxxxxxxxxxxxxxxxxxxxxxx....
            x  Species       atom   co-ordinate  constraints.....         
            x-------------------------------------------------------------....
            x O                 1       x        29165.1220      0.0000      0.0000
            x O                 1       y            0.0000  29165.1220      0.0000
            x O                 1       z            0.0000      0.0000  29165.1220
            x O                 2       x        29165.1220      0.0000      0.0000
            x O                 2       y            0.0000  29165.1220      0.0000
            x O                 2       z            0.0000      0.0000  29165.1220
            x O                 3       x        29165.1220      0.0000      0.0000
            x O                 3       y            0.0000  29165.1220      0.0000
            x O                 3       z            0.0000      0.0000  29165.1220
            x O                 4       x        29165.1220      0.0000      0.0000
            x O                 4       y            0.0000  29165.1220      0.0000
            x O                 4       z            0.0000      0.0000  29165.1220
            x O                 5       x        29165.1220      0.0000      0.0000
            x O                 5       y            0.0000  29165.1220      0.0000
            x O                 5       z            0.0000      0.0000  29165.1220
            x O                 6       x        29165.1220      0.0000      0.0000
            x O                 6       y            0.0000  29165.1220      0.0000
            x O                 6       z            0.0000      0.0000  29165.1220
            x Al                1       x        49184.3386      0.0000      0.0000
            x Al                1       y            0.0000  49184.3386      0.0000
            x Al                1       z            0.0000      0.0000  49184.3386
            x Al                2       x        49184.3386      0.0000      0.0000
            x Al                2       y            0.0000  49184.3386      0.0000
            x Al                2       z            0.0000      0.0000  49184.3386
            x Al                3       x        49184.3386      0.0000      0.0000
            x Al                3       y            0.0000  49184.3386      0.0000
            x Al                3       z            0.0000      0.0000  49184.3386
            x Al                4       x        49184.3386      0.0000      0.0000
            x Al                4       y            0.0000  49184.3386      0.0000
            x Al                4       z            0.0000      0.0000  49184.3386
            xxxxxxxxxxxxxxxxxxxxxxxxxxxxxxxxxxxxxxxxxxxxxxxxxxxxxxxxxxxxxx....

                         Number of cell constraints= 0
                         Cell constraints are:  1 2 3 4 5 6

                         External pressure/stress (GPa)
                          0.00000   0.00000   0.00000
                                    0.00000   0.00000
                                              0.00000
  
+---------------- MEMORY AND SCRATCH DISK ESTIMATES PER PROCESS --------------+
|                                                     Memory          Disk    |
| Baseline code, static data and system overhead      250.0 MB         0.0 MB |
| BLAS internal memory storage                          0.0 MB         0.0 MB |
| Model and support data                              245.8 MB         0.0 MB |
| Electronic energy minimisation requirements          31.3 MB         0.0 MB |
| Force calculation requirements                        4.5 MB         0.0 MB |
|                                               ----------------------------- |
| Approx. total storage required per process          527.1 MB         0.0 MB |
|                                                                             |
| Requirements will fluctuate during execution and may exceed these estimates |
+-----------------------------------------------------------------------------+
Calculating total energy with cut-off of  900.000 eV.
electronic_minimisation: Initialising density mixing
 
Init
Total free energy (E-TS)         =     -3089.37090386389400010 eV
 
NB est. 0K energy (E-0.5TS)      =     -3089.37090386389400010 eV
------------------------------------------------------------------------ <-- SCF
SCF loop      Energy           Fermi           Energy gain       Timer   <-- SCF
                               energy          per atom          (sec)   <-- SCF
------------------------------------------------------------------------ <-- SCF
Initial  -3.08937090E+003  0.00000000E+000                        12.08  <-- SCF
      1  -3.08936798E+003  9.66418661E+000  -2.91955123E-004      13.77  <-- SCF
 Only the high frequencies of the density were mixed in this cycle 
      2  -3.08936798E+003  9.66418661E+000   2.72234726E-011      15.44  <-- SCF
 Norm of density residual is    4.2566928722573749E-004
      3  -3.08936798E+003  9.66416931E+000  -1.18754665E-010      17.18  <-- SCF
 Norm of density residual is    1.1439267500440893E-004
      4  -3.08936798E+003  9.66417460E+000   1.41531122E-011      18.91  <-- SCF
 Norm of density residual is    2.7210386153541369E-005
------------------------------------------------------------------------ <-- SCF
Total energy has converged after 4 SCF iterations.
 
Final energy, E             =  -3089.367984312     eV
Final free energy (E-TS)    =  -3089.367984312     eV
(energies not corrected for finite basis set)
 
NB est. 0K energy (E-0.5TS)      =  -3089.367984312     eV
 
There are 29 bands in total at each k-point and spin
Bands below band 24 are completely full                           <- occ
Bands above band 26 are completely empty                          <- occ
Band energies and occupancies for bands close to Fermi energy     <- occ
Smearing width is  0.200 eV                                       <- occ
Spin 1, kpoint (-0.400000  0.000000 -0.200000 ) weight = 0.096000
+--------+-------------------+----------------+
|  Band  |   Eigenvalue      |    Occupancy   |                   <- occ
+--------+-------------------+----------------+                   <- occ
|    24  |   0.428492E+01    |   1.00000      |                   <- occ
|    25  |   0.128319E+02    |   0.00000      |                   <- occ
|    26  |   0.144321E+02    |   0.00000      |                   <- occ
+--------+-------------------+----------------+                   <- occ
Spin 1, kpoint (-0.400000  0.200000  0.000000 ) weight = 0.096000
+--------+-------------------+----------------+
|  Band  |   Eigenvalue      |    Occupancy   |                   <- occ
+--------+-------------------+----------------+                   <- occ
|    24  |   0.427049E+01    |   1.00000      |                   <- occ
|    25  |   0.137305E+02    |   0.00000      |                   <- occ
|    26  |   0.137788E+02    |   0.00000      |                   <- occ
+--------+-------------------+----------------+                   <- occ
Spin 1, kpoint (-0.400000  0.200000  0.400000 ) weight = 0.096000
+--------+-------------------+----------------+
|  Band  |   Eigenvalue      |    Occupancy   |                   <- occ
+--------+-------------------+----------------+                   <- occ
|    24  |   0.398858E+01    |   1.00000      |                   <- occ
|    25  |   0.137285E+02    |   0.00000      |                   <- occ
|    26  |   0.144104E+02    |   0.00000      |                   <- occ
+--------+-------------------+----------------+                   <- occ
Spin 1, kpoint (-0.400000  0.400000 -0.400000 ) weight = 0.048000
+--------+-------------------+----------------+
|  Band  |   Eigenvalue      |    Occupancy   |                   <- occ
+--------+-------------------+----------------+                   <- occ
|    24  |   0.406565E+01    |   1.00000      |                   <- occ
|    25  |   0.134198E+02    |   0.00000      |                   <- occ
|    26  |   0.137395E+02    |   0.00000      |                   <- occ
+--------+-------------------+----------------+                   <- occ
Spin 1, kpoint (-0.200000 -0.200000 -0.200000 ) weight = 0.016000
+--------+-------------------+----------------+
|  Band  |   Eigenvalue      |    Occupancy   |                   <- occ
+--------+-------------------+----------------+                   <- occ
|    24  |   0.446198E+01    |   1.00000      |                   <- occ
|    25  |   0.112650E+02    |   0.00000      |                   <- occ
|    26  |   0.135167E+02    |   0.00000      |                   <- occ
+--------+-------------------+----------------+                   <- occ
Spin 1, kpoint (-0.200000  0.400000  0.200000 ) weight = 0.096000
+--------+-------------------+----------------+
|  Band  |   Eigenvalue      |    Occupancy   |                   <- occ
+--------+-------------------+----------------+                   <- occ
|    24  |   0.418941E+01    |   1.00000      |                   <- occ
|    25  |   0.137177E+02    |   0.00000      |                   <- occ
|    26  |   0.138798E+02    |   0.00000      |                   <- occ
+--------+-------------------+----------------+                   <- occ
Spin 1, kpoint ( 0.000000 -0.400000  0.400000 ) weight = 0.048000
+--------+-------------------+----------------+
|  Band  |   Eigenvalue      |    Occupancy   |                   <- occ
+--------+-------------------+----------------+                   <- occ
|    24  |   0.427048E+01    |   1.00000      |                   <- occ
|    25  |   0.139223E+02    |   0.00000      |                   <- occ
|    26  |   0.140138E+02    |   0.00000      |                   <- occ
+--------+-------------------+----------------+                   <- occ
Spin 1, kpoint ( 0.000000  0.000000  0.000000 ) weight = 0.008000
+--------+-------------------+----------------+
|  Band  |   Eigenvalue      |    Occupancy   |                   <- occ
+--------+-------------------+----------------+                   <- occ
|    24  |   0.454096E+01    |   1.00000      |                   <- occ
|    25  |   0.105830E+02    |  0.409672E-10  |                   <- occ
|    26  |   0.134595E+02    |   0.00000      |                   <- occ
+--------+-------------------+----------------+                   <- occ
Spin 1, kpoint ( 0.000000  0.200000  0.000000 ) weight = 0.048000
+--------+-------------------+----------------+
|  Band  |   Eigenvalue      |    Occupancy   |                   <- occ
+--------+-------------------+----------------+                   <- occ
|    24  |   0.447015E+01    |   1.00000      |                   <- occ
|    25  |   0.114554E+02    |   0.00000      |                   <- occ
|    26  |   0.141650E+02    |   0.00000      |                   <- occ
+--------+-------------------+----------------+                   <- occ
Spin 1, kpoint ( 0.000000  0.200000  0.200000 ) weight = 0.048000
+--------+-------------------+----------------+
|  Band  |   Eigenvalue      |    Occupancy   |                   <- occ
+--------+-------------------+----------------+                   <- occ
|    24  |   0.445750E+01    |   1.00000      |                   <- occ
|    25  |   0.116487E+02    |   0.00000      |                   <- occ
|    26  |   0.141847E+02    |   0.00000      |                   <- occ
+--------+-------------------+----------------+                   <- occ
Spin 1, kpoint ( 0.000000  0.400000  0.000000 ) weight = 0.048000
+--------+-------------------+----------------+
|  Band  |   Eigenvalue      |    Occupancy   |                   <- occ
+--------+-------------------+----------------+                   <- occ
|    24  |   0.430775E+01    |   1.00000      |                   <- occ
|    25  |   0.130796E+02    |   0.00000      |                   <- occ
|    26  |   0.140221E+02    |   0.00000      |                   <- occ
+--------+-------------------+----------------+                   <- occ
Spin 1, kpoint ( 0.000000  0.400000  0.400000 ) weight = 0.048000
+--------+-------------------+----------------+
|  Band  |   Eigenvalue      |    Occupancy   |                   <- occ
+--------+-------------------+----------------+                   <- occ
|    24  |   0.423543E+01    |   1.00000      |                   <- occ
|    25  |   0.134803E+02    |   0.00000      |                   <- occ
|    26  |   0.141988E+02    |   0.00000      |                   <- occ
+--------+-------------------+----------------+                   <- occ
Spin 1, kpoint ( 0.200000 -0.400000 -0.400000 ) weight = 0.048000
+--------+-------------------+----------------+
|  Band  |   Eigenvalue      |    Occupancy   |                   <- occ
+--------+-------------------+----------------+                   <- occ
|    24  |   0.411428E+01    |   1.00000      |                   <- occ
|    25  |   0.141896E+02    |   0.00000      |                   <- occ
|    26  |   0.142583E+02    |   0.00000      |                   <- occ
+--------+-------------------+----------------+                   <- occ
Spin 1, kpoint ( 0.200000 -0.400000  0.200000 ) weight = 0.048000
+--------+-------------------+----------------+
|  Band  |   Eigenvalue      |    Occupancy   |                   <- occ
+--------+-------------------+----------------+                   <- occ
|    24  |   0.413366E+01    |   1.00000      |                   <- occ
|    25  |   0.137002E+02    |   0.00000      |                   <- occ
|    26  |   0.137901E+02    |   0.00000      |                   <- occ
+--------+-------------------+----------------+                   <- occ
Spin 1, kpoint ( 0.200000 -0.200000 -0.200000 ) weight = 0.048000
+--------+-------------------+----------------+
|  Band  |   Eigenvalue      |    Occupancy   |                   <- occ
+--------+-------------------+----------------+                   <- occ
|    24  |   0.427896E+01    |   1.00000      |                   <- occ
|    25  |   0.130029E+02    |   0.00000      |                   <- occ
|    26  |   0.137709E+02    |   0.00000      |                   <- occ
+--------+-------------------+----------------+                   <- occ
Spin 1, kpoint ( 0.200000 -0.200000  0.000000 ) weight = 0.048000
+--------+-------------------+----------------+
|  Band  |   Eigenvalue      |    Occupancy   |                   <- occ
+--------+-------------------+----------------+                   <- occ
|    24  |   0.444098E+01    |   1.00000      |                   <- occ
|    25  |   0.124757E+02    |   0.00000      |                   <- occ
|    26  |   0.140574E+02    |   0.00000      |                   <- occ
+--------+-------------------+----------------+                   <- occ
Spin 1, kpoint ( 0.200000  0.400000  0.200000 ) weight = 0.048000
+--------+-------------------+----------------+
|  Band  |   Eigenvalue      |    Occupancy   |                   <- occ
+--------+-------------------+----------------+                   <- occ
|    24  |   0.427092E+01    |   1.00000      |                   <- occ
|    25  |   0.122870E+02    |   0.00000      |                   <- occ
|    26  |   0.141902E+02    |   0.00000      |                   <- occ
+--------+-------------------+----------------+                   <- occ
Spin 1, kpoint ( 0.200000  0.400000  0.400000 ) weight = 0.048000
+--------+-------------------+----------------+
|  Band  |   Eigenvalue      |    Occupancy   |                   <- occ
+--------+-------------------+----------------+                   <- occ
|    24  |   0.422773E+01    |   1.00000      |                   <- occ
|    25  |   0.126749E+02    |   0.00000      |                   <- occ
|    26  |   0.141135E+02    |   0.00000      |                   <- occ
+--------+-------------------+----------------+                   <- occ
Spin 1, kpoint ( 0.400000  0.400000  0.400000 ) weight = 0.016000
+--------+-------------------+----------------+
|  Band  |   Eigenvalue      |    Occupancy   |                   <- occ
+--------+-------------------+----------------+                   <- occ
|    24  |   0.427490E+01    |   1.00000      |                   <- occ
|    25  |   0.125076E+02    |   0.00000      |                   <- occ
|    26  |   0.133651E+02    |   0.00000      |                   <- occ
+--------+-------------------+----------------+                   <- occ
Have a nice day.

Writing analysis data to al2o3_xc-PBESOL_c-0900_k-5x5x5_dos.castep_bin

Writing model to al2o3_xc-PBESOL_c-0900_k-5x5x5_dos.check
Initialising basis set.

Standard grid dimensions:  45  45  45
Fine grid dimensions:      45  45  45

G-vector group:   1
 X-columns:
Process  Num. Cols.  Num. Fine Cols.  Num Weight. Cols.  Num Fine Weight. Cols.
   1        1013             1013                231                     231
   2        1012             1012                232                     232
Total       2025             2025                463                     463
 Y-columns:
Process  Num. Cols.  Num. Fine Cols.  Num Weight. Cols.  Num Fine Weight. Cols.
   1        1013             1013                608                     608
   2        1012             1012                607                     607
Total       2025             2025               1215                    1215
 Z-columns:
Process  Num. Cols.  Num. Fine Cols.  Num Weight. Cols.  Num Fine Weight. Cols.
   1        1013             1013               1013                    1013
   2        1012             1012               1012                    1012
Total       2025             2025               2025                    2025

G-vector group:   2
 X-columns:
Process  Num. Cols.  Num. Fine Cols.  Num Weight. Cols.  Num Fine Weight. Cols.
   1        1013             1013                231                     231
   2        1012             1012                232                     232
Total       2025             2025                463                     463
 Y-columns:
Process  Num. Cols.  Num. Fine Cols.  Num Weight. Cols.  Num Fine Weight. Cols.
   1        1013             1013                608                     608
   2        1012             1012                607                     607
Total       2025             2025               1215                    1215
 Z-columns:
Process  Num. Cols.  Num. Fine Cols.  Num Weight. Cols.  Num Fine Weight. Cols.
   1        1013             1013               1013                    1013
   2        1012             1012               1012                    1012
Total       2025             2025               2025                    2025

Plane wave load balancing: max   2640 min   2604 average   2622
True cut-off energy of basis :  33.074
 Reassigning basis set.
True cut-off energy of basis :  33.074
 MEMORY: wavefunction          13.9 Mb
 MEMORY: dome_matrix            0.7 Mb
 
+---------------- MEMORY AND SCRATCH DISK ESTIMATES PER PROCESS --------------+
|                                                     Memory          Disk    |
|                                               ----------------------------- |
| Approx. total storage required per process          457.3 MB         0.0 MB |
|                                                                             |
| Requirements will fluctuate during execution and may exceed these estimates |
+-----------------------------------------------------------------------------+
 
  =====================================================================
  +                                                                   +
  +                 Calculation of Spectral Properties                +
  +                                                                   +
  + Calculation re-parallelised over 4 processes.                     +
  + Data distributed by G-vector(2-way), k-point(2-way), band(1-way)  +
  + Data distributed by G-vector(2-way), k-point(2-way)               +
  +                                                                   +
  =====================================================================

 Pseudo atomic calculation performed for O 2s2 2p4

 Converged in 14 iterations to a total energy of -431.1291 eV

 Pseudo atomic calculation performed for Al 3s2 3p1

 Converged in 11 iterations to a total energy of -105.9172 eV
  Starting k-point:        1 of      335 on this process      |<-- SPEC
  Diag Hamiltonian conv in  19 iter. Time:      3.67 sec      |<-- SPEC
  Create optics matrix elements      Time:      0.14 sec      |<-- SPEC

 Pseudo atomic calculation performed for O 2s2 2p4

 Converged in 14 iterations to a total energy of -431.1291 eV

 Pseudo atomic calculation performed for Al 3s2 3p1

 Converged in 11 iterations to a total energy of -105.9172 eV
  Create pdos weights                Time:      0.72 sec      |<-- SPEC
  Time for k-point:        1 of      335          4.54 sec    |<-- SPEC
  Starting k-point:        2 of      335 on this process      |<-- SPEC
  Diag Hamiltonian conv in  18 iter. Time:      3.49 sec      |<-- SPEC
  Create optics matrix elements      Time:      0.15 sec      |<-- SPEC

 Pseudo atomic calculation performed for O 2s2 2p4

 Converged in 14 iterations to a total energy of -431.1291 eV

 Pseudo atomic calculation performed for Al 3s2 3p1

 Converged in 11 iterations to a total energy of -105.9172 eV
  Create pdos weights                Time:      0.62 sec      |<-- SPEC
  Time for k-point:        2 of      335          4.26 sec    |<-- SPEC
  Starting k-point:        3 of      335 on this process      |<-- SPEC
  Diag Hamiltonian conv in  19 iter. Time:      3.48 sec      |<-- SPEC
  Create optics matrix elements      Time:      0.16 sec      |<-- SPEC

 Pseudo atomic calculation performed for O 2s2 2p4

 Converged in 14 iterations to a total energy of -431.1291 eV

 Pseudo atomic calculation performed for Al 3s2 3p1

 Converged in 11 iterations to a total energy of -105.9172 eV
  Create pdos weights                Time:      0.58 sec      |<-- SPEC
  Time for k-point:        3 of      335          4.23 sec    |<-- SPEC
  Starting k-point:        4 of      335 on this process      |<-- SPEC
  Diag Hamiltonian conv in  19 iter. Time:      3.39 sec      |<-- SPEC
  Create optics matrix elements      Time:      0.15 sec      |<-- SPEC

 Pseudo atomic calculation performed for O 2s2 2p4

 Converged in 14 iterations to a total energy of -431.1291 eV

 Pseudo atomic calculation performed for Al 3s2 3p1

 Converged in 11 iterations to a total energy of -105.9172 eV
  Create pdos weights                Time:      0.69 sec      |<-- SPEC
  Time for k-point:        4 of      335          4.23 sec    |<-- SPEC
  Starting k-point:        5 of      335 on this process      |<-- SPEC
  Diag Hamiltonian conv in  19 iter. Time:      3.53 sec      |<-- SPEC
  Create optics matrix elements      Time:      0.12 sec      |<-- SPEC

 Pseudo atomic calculation performed for O 2s2 2p4

 Converged in 14 iterations to a total energy of -431.1291 eV

 Pseudo atomic calculation performed for Al 3s2 3p1

 Converged in 11 iterations to a total energy of -105.9172 eV
  Create pdos weights                Time:      0.64 sec      |<-- SPEC
  Time for k-point:        5 of      335          4.30 sec    |<-- SPEC
  Starting k-point:        6 of      335 on this process      |<-- SPEC
  Diag Hamiltonian conv in  19 iter. Time:      3.64 sec      |<-- SPEC
  Create optics matrix elements      Time:      0.12 sec      |<-- SPEC

 Pseudo atomic calculation performed for O 2s2 2p4

 Converged in 14 iterations to a total energy of -431.1291 eV

 Pseudo atomic calculation performed for Al 3s2 3p1

 Converged in 11 iterations to a total energy of -105.9172 eV
  Create pdos weights                Time:      0.72 sec      |<-- SPEC
  Time for k-point:        6 of      335          4.48 sec    |<-- SPEC
  Starting k-point:        7 of      335 on this process      |<-- SPEC
  Diag Hamiltonian conv in  20 iter. Time:      3.57 sec      |<-- SPEC
  Create optics matrix elements      Time:      0.13 sec      |<-- SPEC

 Pseudo atomic calculation performed for O 2s2 2p4

 Converged in 14 iterations to a total energy of -431.1291 eV

 Pseudo atomic calculation performed for Al 3s2 3p1

 Converged in 11 iterations to a total energy of -105.9172 eV
  Create pdos weights                Time:      0.64 sec      |<-- SPEC
  Time for k-point:        7 of      335          4.35 sec    |<-- SPEC
  Starting k-point:        8 of      335 on this process      |<-- SPEC
  Diag Hamiltonian conv in  19 iter. Time:      3.37 sec      |<-- SPEC
  Create optics matrix elements      Time:      0.13 sec      |<-- SPEC

 Pseudo atomic calculation performed for O 2s2 2p4

 Converged in 14 iterations to a total energy of -431.1291 eV

 Pseudo atomic calculation performed for Al 3s2 3p1

 Converged in 11 iterations to a total energy of -105.9172 eV
  Create pdos weights                Time:      0.63 sec      |<-- SPEC
  Time for k-point:        8 of      335          4.13 sec    |<-- SPEC
  Starting k-point:        9 of      335 on this process      |<-- SPEC
  Diag Hamiltonian conv in  19 iter. Time:      3.53 sec      |<-- SPEC
  Create optics matrix elements      Time:      0.12 sec      |<-- SPEC

 Pseudo atomic calculation performed for O 2s2 2p4

 Converged in 14 iterations to a total energy of -431.1291 eV

 Pseudo atomic calculation performed for Al 3s2 3p1

 Converged in 11 iterations to a total energy of -105.9172 eV
  Create pdos weights                Time:      0.62 sec      |<-- SPEC
  Time for k-point:        9 of      335          4.27 sec    |<-- SPEC
  Starting k-point:       10 of      335 on this process      |<-- SPEC
  Diag Hamiltonian conv in  19 iter. Time:      3.42 sec      |<-- SPEC
  Create optics matrix elements      Time:      0.12 sec      |<-- SPEC

 Pseudo atomic calculation performed for O 2s2 2p4

 Converged in 14 iterations to a total energy of -431.1291 eV

 Pseudo atomic calculation performed for Al 3s2 3p1

 Converged in 11 iterations to a total energy of -105.9172 eV
  Create pdos weights                Time:      0.67 sec      |<-- SPEC
  Time for k-point:       10 of      335          4.21 sec    |<-- SPEC
  Starting k-point:       11 of      335 on this process      |<-- SPEC
  Diag Hamiltonian conv in  19 iter. Time:      3.32 sec      |<-- SPEC
  Create optics matrix elements      Time:      0.14 sec      |<-- SPEC

 Pseudo atomic calculation performed for O 2s2 2p4

 Converged in 14 iterations to a total energy of -431.1291 eV

 Pseudo atomic calculation performed for Al 3s2 3p1

 Converged in 11 iterations to a total energy of -105.9172 eV
  Create pdos weights                Time:      0.61 sec      |<-- SPEC
  Time for k-point:       11 of      335          4.06 sec    |<-- SPEC
  Starting k-point:       12 of      335 on this process      |<-- SPEC
  Diag Hamiltonian conv in  20 iter. Time:      3.65 sec      |<-- SPEC
  Create optics matrix elements      Time:      0.17 sec      |<-- SPEC

 Pseudo atomic calculation performed for O 2s2 2p4

 Converged in 14 iterations to a total energy of -431.1291 eV

 Pseudo atomic calculation performed for Al 3s2 3p1

 Converged in 11 iterations to a total energy of -105.9172 eV
  Create pdos weights                Time:      0.78 sec      |<-- SPEC
  Time for k-point:       12 of      335          4.60 sec    |<-- SPEC
  Starting k-point:       13 of      335 on this process      |<-- SPEC
  Diag Hamiltonian conv in  21 iter. Time:      3.26 sec      |<-- SPEC
  Create optics matrix elements      Time:      0.18 sec      |<-- SPEC

 Pseudo atomic calculation performed for O 2s2 2p4

 Converged in 14 iterations to a total energy of -431.1291 eV

 Pseudo atomic calculation performed for Al 3s2 3p1

 Converged in 11 iterations to a total energy of -105.9172 eV
  Create pdos weights                Time:      0.66 sec      |<-- SPEC
  Time for k-point:       13 of      335          4.10 sec    |<-- SPEC
  Starting k-point:       14 of      335 on this process      |<-- SPEC
  Diag Hamiltonian conv in  19 iter. Time:      3.53 sec      |<-- SPEC
  Create optics matrix elements      Time:      0.13 sec      |<-- SPEC

 Pseudo atomic calculation performed for O 2s2 2p4

 Converged in 14 iterations to a total energy of -431.1291 eV

 Pseudo atomic calculation performed for Al 3s2 3p1

 Converged in 11 iterations to a total energy of -105.9172 eV
  Create pdos weights                Time:      0.80 sec      |<-- SPEC
  Time for k-point:       14 of      335          4.46 sec    |<-- SPEC
  Starting k-point:       15 of      335 on this process      |<-- SPEC
  Diag Hamiltonian conv in  19 iter. Time:      3.73 sec      |<-- SPEC
[...]
  Create optics matrix elements      Time:      0.13 sec      |<-- SPEC

 Pseudo atomic calculation performed for O 2s2 2p4

 Converged in 14 iterations to a total energy of -431.1291 eV

 Pseudo atomic calculation performed for Al 3s2 3p1

 Converged in 11 iterations to a total energy of -105.9172 eV
  Create pdos weights                Time:      0.66 sec      |<-- SPEC
  Time for k-point:      329 of      335          4.35 sec    |<-- SPEC
  Starting k-point:      330 of      335 on this process      |<-- SPEC
  Diag Hamiltonian conv in  19 iter. Time:      3.30 sec      |<-- SPEC
  Create optics matrix elements      Time:      0.13 sec      |<-- SPEC

 Pseudo atomic calculation performed for O 2s2 2p4

 Converged in 14 iterations to a total energy of -431.1291 eV

 Pseudo atomic calculation performed for Al 3s2 3p1

 Converged in 11 iterations to a total energy of -105.9172 eV
  Create pdos weights                Time:      0.76 sec      |<-- SPEC
  Time for k-point:      330 of      335          4.20 sec    |<-- SPEC
  Starting k-point:      331 of      335 on this process      |<-- SPEC
  Diag Hamiltonian conv in  20 iter. Time:      3.44 sec      |<-- SPEC
  Create optics matrix elements      Time:      0.13 sec      |<-- SPEC

 Pseudo atomic calculation performed for O 2s2 2p4

 Converged in 14 iterations to a total energy of -431.1291 eV

 Pseudo atomic calculation performed for Al 3s2 3p1

 Converged in 11 iterations to a total energy of -105.9172 eV
  Create pdos weights                Time:      0.62 sec      |<-- SPEC
  Time for k-point:      331 of      335          4.19 sec    |<-- SPEC
  Starting k-point:      332 of      335 on this process      |<-- SPEC
  Diag Hamiltonian conv in  19 iter. Time:      3.40 sec      |<-- SPEC
  Create optics matrix elements      Time:      0.17 sec      |<-- SPEC

 Pseudo atomic calculation performed for O 2s2 2p4

 Converged in 14 iterations to a total energy of -431.1291 eV

 Pseudo atomic calculation performed for Al 3s2 3p1

 Converged in 11 iterations to a total energy of -105.9172 eV
  Create pdos weights                Time:      0.63 sec      |<-- SPEC
  Time for k-point:      332 of      335          4.20 sec    |<-- SPEC
  Starting k-point:      333 of      335 on this process      |<-- SPEC
  Diag Hamiltonian conv in  19 iter. Time:      3.02 sec      |<-- SPEC
  Create optics matrix elements      Time:      0.18 sec      |<-- SPEC

 Pseudo atomic calculation performed for O 2s2 2p4

 Converged in 14 iterations to a total energy of -431.1291 eV

 Pseudo atomic calculation performed for Al 3s2 3p1

 Converged in 11 iterations to a total energy of -105.9172 eV
  Create pdos weights                Time:      0.62 sec      |<-- SPEC
  Time for k-point:      333 of      335          3.81 sec    |<-- SPEC
  Starting k-point:      334 of      335 on this process      |<-- SPEC
  Diag Hamiltonian conv in  19 iter. Time:      3.20 sec      |<-- SPEC
  Create optics matrix elements      Time:      0.13 sec      |<-- SPEC

 Pseudo atomic calculation performed for O 2s2 2p4

 Converged in 14 iterations to a total energy of -431.1291 eV

 Pseudo atomic calculation performed for Al 3s2 3p1

 Converged in 11 iterations to a total energy of -105.9172 eV
  Create pdos weights                Time:      0.67 sec      |<-- SPEC
  Time for k-point:      334 of      335          3.99 sec    |<-- SPEC
  Starting k-point:      335 of      335 on this process      |<-- SPEC
  Diag Hamiltonian conv in  19 iter. Time:      3.33 sec      |<-- SPEC
  Create optics matrix elements      Time:      0.16 sec      |<-- SPEC

 Pseudo atomic calculation performed for O 2s2 2p4

 Converged in 14 iterations to a total energy of -431.1291 eV

 Pseudo atomic calculation performed for Al 3s2 3p1

 Converged in 11 iterations to a total energy of -105.9172 eV
  Create pdos weights                Time:      0.72 sec      |<-- SPEC
  Time for k-point:      335 of      335          4.21 sec    |<-- SPEC
  Total time to compute matrix elements           1430.04 sec |<-- SPEC
  
  Output matrix elements             Time:      1.31 sec      |<-- SPEC
  
  + Calculation re-parallelised over 4 processes.                     +
  + Data distributed by G-vector(4-way)                               +
Initialising basis set.

Standard grid dimensions:  45  45  45
Fine grid dimensions:      45  45  45

G-vector group:   1
 X-columns:
Process  Num. Cols.  Num. Fine Cols.  Num Weight. Cols.  Num Fine Weight. Cols.
   1         507              507                109                     109
   2         506              506                110                     110
   3         506              506                110                     110
   4         506              506                110                     110
Total       2025             2025                439                     439
 Y-columns:
Process  Num. Cols.  Num. Fine Cols.  Num Weight. Cols.  Num Fine Weight. Cols.
   1         507              507                282                     282
   2         506              506                281                     281
   3         506              506                281                     281
   4         506              506                281                     281
Total       2025             2025               1125                    1125
 Z-columns:
Process  Num. Cols.  Num. Fine Cols.  Num Weight. Cols.  Num Fine Weight. Cols.
   1         507              507                507                     507
   2         506              506                506                     506
   3         506              506                506                     506
   4         506              506                506                     506
Total       2025             2025               2025                    2025

Plane wave load balancing: max   1330 min   1293 average   1311
True cut-off energy of basis :  33.074
 Reassigning basis set.
True cut-off energy of basis :  33.074

 *********************** Ewald forces ***********************
 *                                                          *
 *               Cartesian components (eV/A)                *
 * -------------------------------------------------------- *
 *                         x            y            z      *
 *                                                          *
 * O               1     32.15752      0.00007     -0.00012 *
 * O               2    -16.07869    -27.84915      0.00001 *
 * O               3    -16.07870     27.84932      0.00011 *
 * O               4     16.07869     27.84915     -0.00001 *
 * O               5     16.07870    -27.84932     -0.00011 *
 * O               6    -32.15752     -0.00007      0.00012 *
 * Al              1      0.00008      0.00001    -16.38836 *
 * Al              2      0.00002     -0.00009    -16.38836 *
 * Al              3     -0.00008     -0.00001     16.38836 *
 * Al              4     -0.00002      0.00009     16.38836 *
 *                                                          *
 ************************************************************

 ****************** Local potential forces ******************
 *                                                          *
 *               Cartesian components (eV/A)                *
 * -------------------------------------------------------- *
 *                         x            y            z      *
 *                                                          *
 * O               1    -31.28939      0.00003      0.00004 *
 * O               2     15.64470     27.09743      0.00001 *
 * O               3     15.64472    -27.09741     -0.00004 *
 * O               4    -15.64470    -27.09743     -0.00001 *
 * O               5    -15.64472     27.09741      0.00004 *
 * O               6     31.28939     -0.00003     -0.00004 *
 * Al              1     -0.00005     -0.00002     15.49867 *
 * Al              2     -0.00001      0.00007     15.49867 *
 * Al              3      0.00005      0.00002    -15.49867 *
 * Al              4      0.00001     -0.00007    -15.49867 *
 *                                                          *
 ************************************************************

 **************** Non-local potential forces ****************
 *                                                          *
 *               Cartesian components (eV/A)                *
 * -------------------------------------------------------- *
 *                         x            y            z      *
 *                                                          *
 * O               1     -1.25880     -0.42883     -0.01733 *
 * O               2      0.59603      0.28578     -0.14265 *
 * O               3      0.39060     -0.79014      0.13391 *
 * O               4     -0.59603     -0.28578      0.14265 *
 * O               5     -0.39060      0.79014     -0.13391 *
 * O               6      1.25880      0.42883      0.01733 *
 * Al              1      0.01653      0.02840      0.89128 *
 * Al              2     -0.06980     -0.06119      0.89153 *
 * Al              3     -0.01653     -0.02840     -0.89128 *
 * Al              4      0.06980      0.06119     -0.89153 *
 *                                                          *
 ************************************************************

 ************** External Efield and/or dipole ***************
 *                                                          *
 *               Cartesian components (eV/A)                *
 * -------------------------------------------------------- *
 *                         x            y            z      *
 *                                                          *
 * O               1      0.00000      0.00000      0.00000 *
 * O               2      0.00000      0.00000      0.00000 *
 * O               3      0.00000      0.00000      0.00000 *
 * O               4      0.00000      0.00000      0.00000 *
 * O               5      0.00000      0.00000      0.00000 *
 * O               6      0.00000      0.00000      0.00000 *
 * Al              1      0.00000      0.00000      0.00000 *
 * Al              2      0.00000      0.00000      0.00000 *
 * Al              3      0.00000      0.00000      0.00000 *
 * Al              4      0.00000      0.00000      0.00000 *
 *                                                          *
 ************************************************************

 ***************** DM correction to forces ******************
 *                                                          *
 *               Cartesian components (eV/A)                *
 * -------------------------------------------------------- *
 *                         x            y            z      *
 *                                                          *
 * O               1      0.00000      0.00000      0.00000 *
 * O               2      0.00000      0.00000      0.00000 *
 * O               3      0.00000      0.00000      0.00000 *
 * O               4      0.00000      0.00000      0.00000 *
 * O               5      0.00000      0.00000      0.00000 *
 * O               6      0.00000      0.00000      0.00000 *
 * Al              1      0.00000      0.00000      0.00000 *
 * Al              2      0.00000      0.00000      0.00000 *
 * Al              3      0.00000      0.00000      0.00000 *
 * Al              4      0.00000      0.00000      0.00000 *
 *                                                          *
 ************************************************************

 ******************** Symmetrised Forces ********************
 *                                                          *
 *               Cartesian components (eV/A)                *
 * -------------------------------------------------------- *
 *                         x            y            z      *
 *                                                          *
 * O               1     -0.02653      0.00000      0.00000 *
 * O               2      0.01327      0.02298     -0.00000 *
 * O               3      0.01327     -0.02298     -0.00000 *
 * O               4     -0.01327     -0.02298      0.00000 *
 * O               5     -0.01327      0.02298      0.00000 *
 * O               6      0.02653     -0.00000     -0.00000 *
 * Al              1      0.00000     -0.00000      0.00171 *
 * Al              2      0.00000     -0.00000      0.00171 *
 * Al              3     -0.00000      0.00000     -0.00171 *
 * Al              4     -0.00000      0.00000     -0.00171 *
 *                                                          *
 ************************************************************

 Pseudo atomic calculation performed for O 2s2 2p4

 Converged in 14 iterations to a total energy of -431.1291 eV

 Pseudo atomic calculation performed for Al 3s2 3p1

 Converged in 11 iterations to a total energy of -105.9172 eV
Charge spilling parameter for spin component 1 = 0.78%

            Orbital Populations       
     Ion    Atom   Orbital             Charge
  -------------------------------------------
      O     1      S                    1.832
      O     1      Px                   1.717
      O     1      Py                   1.762
      O     1      Pz                   1.744
      O     2      S                    1.833
      O     2      Px                   1.740
      O     2      Py                   1.732
      O     2      Pz                   1.741
      O     3      S                    1.833
      O     3      Px                   1.740
      O     3      Py                   1.729
      O     3      Pz                   1.743
      O     4      S                    1.833
      O     4      Px                   1.740
      O     4      Py                   1.731
      O     4      Pz                   1.741
      O     5      S                    1.833
      O     5      Px                   1.740
      O     5      Py                   1.730
      O     5      Pz                   1.744
      O     6      S                    1.832
      O     6      Px                   1.717
      O     6      Py                   1.761
      O     6      Pz                   1.744
     Al     1      S                    0.518
     Al     1      Px                   0.295
     Al     1      Py                   0.317
     Al     1      Pz                   0.298
     Al     2      S                    0.517
     Al     2      Px                   0.302
     Al     2      Py                   0.309
     Al     2      Pz                   0.298
     Al     3      S                    0.518
     Al     3      Px                   0.295
     Al     3      Py                   0.317
     Al     3      Pz                   0.298
     Al     4      S                    0.517
     Al     4      Px                   0.302
     Al     4      Py                   0.309
     Al     4      Pz                   0.298
  -------------------------------------------
                           Total:      47.999
  -------------------------------------------
The total projected population is   47.999  -0.000

     Atomic Populations (Mulliken)
     -----------------------------
Species          Ion     s       p       d       f      Total   Charge (e)
==========================================================================
  O               1     1.833   5.216   0.000   0.000   7.048    -1.048
  O               2     1.833   5.216   0.000   0.000   7.048    -1.048
  O               3     1.833   5.216   0.000   0.000   7.048    -1.048
  O               4     1.833   5.216   0.000   0.000   7.048    -1.048
  O               5     1.833   5.216   0.000   0.000   7.048    -1.048
  O               6     1.833   5.216   0.000   0.000   7.048    -1.048
  Al              1     0.518   0.909   0.000   0.000   1.427     1.573
  Al              2     0.518   0.909   0.000   0.000   1.427     1.573
  Al              3     0.518   0.909   0.000   0.000   1.427     1.573
  Al              4     0.518   0.909   0.000   0.000   1.427     1.573
==========================================================================

                 Bond                   Population      Length (A)
======================================================================
               O 1 -- Al 2                   0.36        1.86027
               O 6 -- Al 4                   0.36        1.86027
               O 3 -- Al 3                   0.36        1.86027
               O 5 -- Al 1                   0.36        1.86027
               O 2 -- Al 2                   0.36        1.86027
               O 4 -- Al 4                   0.36        1.86027
               O 4 -- Al 1                   0.36        1.86027
               O 2 -- Al 3                   0.36        1.86027
               O 6 -- Al 1                   0.36        1.86027
               O 1 -- Al 3                   0.36        1.86027
               O 3 -- Al 2                   0.36        1.86027
               O 5 -- Al 4                   0.36        1.86027
               O 1 -- Al 4                   0.26        1.97445
               O 6 -- Al 2                   0.26        1.97445
               O 3 -- Al 4                   0.26        1.97445
               O 5 -- Al 2                   0.26        1.97445
               O 3 -- Al 1                   0.26        1.97445
               O 5 -- Al 3                   0.26        1.97445
               O 6 -- Al 3                   0.26        1.97445
               O 1 -- Al 1                   0.26        1.97445
               O 4 -- Al 3                   0.26        1.97445
               O 2 -- Al 1                   0.26        1.97445
               O 2 -- Al 4                   0.26        1.97445
               O 4 -- Al 2                   0.26        1.97445
               O 5 -- O 6                   -0.17        2.53024
               O 1 -- O 3                   -0.17        2.53024
               O 4 -- O 5                   -0.17        2.53024
               O 2 -- O 3                   -0.17        2.53024
               O 4 -- O 6                   -0.17        2.53024
               O 1 -- O 2                   -0.17        2.53024
               O 2 -- O 4                   -0.16        2.62456
               O 1 -- O 6                   -0.16        2.62456
               O 3 -- O 5                   -0.16        2.62456
              Al 2 -- Al 3                  -0.52        2.65661
              Al 1 -- Al 4                  -0.52        2.65661
               O 3 -- O 4                   -0.10        2.73090
               O 2 -- O 5                   -0.10        2.73090
               O 3 -- O 6                   -0.10        2.73090
               O 1 -- O 5                   -0.10        2.73090
               O 2 -- O 6                   -0.10        2.73090
               O 1 -- O 4                   -0.10        2.73090
              Al 1 -- Al 3                  -0.65        2.79818
              Al 2 -- Al 4                  -0.65        2.79818
======================================================================


Writing analysis data to al2o3_xc-PBESOL_c-0900_k-5x5x5_dos.castep_bin

Writing model to al2o3_xc-PBESOL_c-0900_k-5x5x5_dos.check
 
 A BibTeX formatted list of references used in this run has been written to 
 al2o3_xc-PBESOL_c-0900_k-5x5x5_dos.bib
 
Initialisation time =     11.33 s
Calculation time    =   1442.95 s
Finalisation time   =      0.08 s
Total time          =   1454.35 s
Peak Memory Use     = 1054952 kB
  
Overall parallel efficiency rating: Good (73%)                                  
  
Data was distributed by:-
G-vector (4-way); efficiency rating: Good (73%)                                 
  
Parallel notes:
1) SMP optimisations were used (num_proc_in_smp=0).                             
2) k-points were not distributed.                                               
