 +-------------------------------------------------+
 |                                                 |
 |      CCC   AA    SSS  TTTTT  EEEEE  PPPP        |
 |     C     A  A  S       T    E      P   P       |
 |     C     AAAA   SS     T    EEE    PPPP        |
 |     C     A  A     S    T    E      P           |
 |      CCC  A  A  SSS     T    EEEEE  P           |
 |                                                 |
 +-------------------------------------------------+
 |                                                 |
 | Welcome to Academic Release CASTEP version 19.11|          
 | Ab Initio Total Energy Program                  |
 |                                                 |
 | Authors:                                        |
 | M. Segall, M. Probert, C. Pickard, P. Hasnip,   |
 | S. Clark, K. Refson, J. R. Yates, M. Payne      |
 |                                                 |
 | Contributors:                                   |
 | P. Lindan, P. Haynes, J. White, V. Milman,      |
 | N. Govind, M. Gibson, P. Tulip, V. Cocula,      |
 | B. Montanari, D. Quigley, M. Glover,            |
 | L. Bernasconi, A. Perlov, M. Plummer,           |
 | E. McNellis, J. Meyer, J. Gale, D. Jochym       |
 | J. Aarons, B. Walker, R. Gillen, D. Jones       |
 | T. Green, I. J. Bush, C. J. Armstrong,          |
 | E. J. Higgins, E. L. Brown, M. S. McFly,        |
 | J. Wilkins, B-C. Shih, P. J. P. Byrne           |
 |                                                 |
 | Copyright (c) 2000 - 2018                       |
 |                                                 |
 |     Distributed under the terms of an           |
 |     Agreement between the United Kingdom        |
 |     Car-Parrinello (UKCP) Consortium,           |
 |     Daresbury Laboratory and Accelrys, Inc.     |
 |                                                 |
 | Please cite                                     |
 |                                                 |
 |     "First principles methods using CASTEP"     |
 |                                                 |
 |         Zeitschrift fuer Kristallographie       |
 |           220(5-6) pp. 567-570 (2005)           |
 |                                                 |
 | S. J. Clark, M. D. Segall, C. J. Pickard,       |
 | P. J. Hasnip, M. J. Probert, K. Refson,         |
 | M. C. Payne                                     |
 |                                                 |
 |       in all publications arising from          |
 |              your use of CASTEP                 |
 |                                                 |
 +-------------------------------------------------+
 |                                                 |
 |              http://www.castep.org              |
 |                                                 |
 +-------------------------------------------------+



 Compiled for linux_x86_64_gfortran7.0 on Fri, 31 Jan 2020 20:20:28 +0100
 from code version e1fe0d666396+ Castep191_branch Thu, 24 Oct 2019 13:54:03 +0100
 Compiler: GNU Fortran 7.4.0; Optimisation: fast
 MATHLIBS: default (LAPACK version 3.7.1)
 FFT Lib : default
 Fundamental constants values: CODATA 2014

 Run started: Sat, 06 Nov 2021 00:01:16 +0100

 Atomic calculation performed for O: 1s2 2s2 2p4

 Converged in 60 iterations to an ae energy of -2027.926 eV

   ============================================================                
   | Pseudopotential Report - Date of generation  6-11-2021   |                
   ------------------------------------------------------------                
   | Element: O Ionic charge:  6.00 Level of theory: LDA      |                
   | Atomic Solver: Koelling-Harmon                           |                
   |                                                          |                
   |               Reference Electronic Structure             |                
   |         Orbital         Occupation         Energy        |                
   |            2s              2.000           -0.873        |                
   |            2p              4.000           -0.338        |                
   |                                                          |                
   |                 Pseudopotential Definition               |                
   |        Beta     l      e      Rc     scheme   norm       |                
   |          1      0   -0.873   1.100     qc      0         |                
   |          2      0    0.250   1.100     qc      0         |                
   |          3      1   -0.338   1.100     qc      0         |                
   |          4      1    0.250   1.100     qc      0         |                
   |         loc     2    0.000   1.100     pn      0         |                
   |                                                          |                
   | Augmentation charge Rinner = 0.769                       |                
   | Partial core correction Rc = 0.769                       |                
   ------------------------------------------------------------                
   | "2|1.1|17|20|23|20:21(qc=8)"                             |                
   ------------------------------------------------------------                
   |      Author: Chris J. Pickard, Cambridge University      |                
   ============================================================                

 Atomic calculation performed for Al: 1s2 2s2 2p6 3s2 3p1

 Converged in 55 iterations to an ae energy of -6578.725 eV

   ============================================================                
   | Pseudopotential Report - Date of generation  6-11-2021   |                
   ------------------------------------------------------------                
   | Element: Al Ionic charge:  3.00 Level of theory: LDA     |                
   | Atomic Solver: Koelling-Harmon                           |                
   |                                                          |                
   |               Reference Electronic Structure             |                
   |         Orbital         Occupation         Energy        |                
   |            3s              2.000           -0.288        |                
   |            3p              1.000           -0.102        |                
   |                                                          |                
   |                 Pseudopotential Definition               |                
   |        Beta     l      e      Rc     scheme   norm       |                
   |          1      0   -0.288   2.192     qc      0         |                
   |          2      0    0.250   2.192     qc      0         |                
   |          3      1   -0.102   2.192     qc      0         |                
   |          4      1    0.250   2.192     qc      0         |                
   |          5      2    0.000   2.000     qc      0         |                
   |          6      2    0.250   2.000     qc      0         |                
   |         loc     3    0.000   2.192     pn      0         |                
   |                                                          |                
   | Augmentation charge Rinner = 1.398                       |                
   | Partial core correction Rc = 1.398                       |                
   ------------------------------------------------------------                
   | "3|2.2|2.2|1.4|4|5|5|30:31:32U2U2"                       |                
   ------------------------------------------------------------                
   |      Author: Chris J. Pickard, Cambridge University      |                
   ============================================================                

 Pseudo atomic calculation performed for O 2s2 2p4

 Converged in 20 iterations to a total energy of -388.4671 eV

 Pseudo atomic calculation performed for Al 3s2 3p1

 Converged in 15 iterations to a total energy of -105.5906 eV
 Calculation parallelised over 9 processes.
 Data is distributed by k-point(9-way)

 ************************************ Title ************************************
 

 ***************************** General Parameters ******************************
  
 output verbosity                               : normal  (1)
 write checkpoint data to                       : al2o3_xc-LDA_c-0200_k-5x5x5_geom.check
 type of calculation                            : geometry optimization
 stress calculation                             : off
 density difference calculation                 : off
 electron localisation func (ELF) calculation   : off
 Hirshfeld analysis                             : off
 unlimited duration calculation
 timing information                             : on
 memory usage estimate                          : on
 write extra output files                       : on
 write final potential to formatted file        : off
 write final density to formatted file          : off
 write structure in CIF formatted file          : on
 write structure in CELL formatted file         : on
 write BibTeX reference list                    : on
 write OTFG pseudopotential files               : on
 write electrostatic potential file             : on
 write bands file                               : on
 checkpoint writing                             : both castep_bin and check files
  
 output         length unit                     : A
 output           mass unit                     : amu
 output           time unit                     : ps
 output         charge unit                     : e
 output           spin unit                     : hbar/2
 output         energy unit                     : eV
 output          force unit                     : eV/A
 output       velocity unit                     : A/ps
 output       pressure unit                     : GPa
 output     inv_length unit                     : 1/A
 output      frequency unit                     : cm-1
 output force constant unit                     : eV/A**2
 output         volume unit                     : A**3
 output   IR intensity unit                     : (D/A)**2/amu
 output         dipole unit                     : D
 output         efield unit                     : eV/A/e
 output        entropy unit                     : J/mol/K
  
 wavefunctions paging                           : none
 random number generator seed                   : randomised (116126)
 data distribution                              : optimal for this architecture
 optimization strategy                          : maximize speed(+++)

 *********************** Exchange-Correlation Parameters ***********************
  
 using functional                               : Local Density Approximation
 relativistic treatment                         : Koelling-Harmon
 DFT+D: Semi-empirical dispersion correction    : off

 ************************* Pseudopotential Parameters **************************
  
 pseudopotential representation                 : reciprocal space
 <beta|phi> representation                      : reciprocal space
 spin-orbit coupling                            : off

 **************************** Basis Set Parameters *****************************
  
 plane wave basis set cut-off                   :   200.0000   eV
 size of standard grid                          :     1.7500
 size of   fine   gmax                          :    12.6792   1/A
 finite basis set correction                    : automatic
 number of sample energies                      :          3
           sample  spacing                      :     5.0000   eV

 **************************** Electronic Parameters ****************************
  
 number of  electrons                           :  48.00    
 net charge of system                           :  0.000    
 treating system as non-spin-polarized
 number of bands                                :         29

 ********************* Electronic Minimization Parameters **********************
  
 Method: Treating system as metallic with density mixing treatment of electrons,
         and number of  SD  steps               :          1
         and number of  CG  steps               :          4
  
 total energy / atom convergence tol.           : 0.1000E-04   eV
 eigen-energy convergence tolerance             : 0.1000E-05   eV
 max force / atom convergence tol.              : ignored
 convergence tolerance window                   :          3   cycles
 max. number of SCF cycles                      :         30
 number of fixed-spin iterations                :         10
 smearing scheme                                : Gaussian
 smearing width                                 : 0.2000       eV
 Fermi energy convergence tolerance             : 0.2721E-13   eV
 periodic dipole correction                     : NONE

 ************************** Density Mixing Parameters **************************
  
 density-mixing scheme                          : Broyden
 max. length of mixing history                  :         20
 charge density mixing amplitude                : 0.8000    
 cut-off energy for mixing                      :  200.0       eV

 *********************** Population Analysis Parameters ************************
  
 Population analysis with cutoff                :  3.000       A
 Population analysis output                     : summary and pdos components

 ********************** Geometry Optimization Parameters ***********************
  
 optimization method                            : LBFGS
 max. no. of LBFGS updates                      : unbounded
 variable cell method                           : fixed basis quality
 max. number of steps                           :        150
 estimated bulk modulus                         :  500.0       GPa
 estimated <frequency>                          :  1668.       cm-1
 geom line minimiser                            : on
 with line minimiser tolerance                  :     0.4000
 total energy convergence tolerance             : 0.1000E-04   eV/atom
        max ionic |force| tolerance             : 0.1000E-01   eV/A
 max ionic |displacement| tolerance             : 0.1000E-02   A
   max |stress component| tolerance             : 0.1000       GPa
 convergence tolerance window                   :          2   steps
 backup results every                           :          5   steps
 write geom trajectory file                     : on

 *******************************************************************************
  

                           -------------------------------
                                      Unit Cell
                           -------------------------------
        Real Lattice(A)                      Reciprocal Lattice(1/A)
     2.3801000     1.3741510     4.3310000        1.319941454   0.762068577   0.483582396
    -2.3801000     1.3741510     4.3310000       -1.319941454   0.762068577   0.483582396
     0.0000000    -2.7483030     4.3310000       -0.000000000  -1.524137154   0.483582220

                       Lattice parameters(A)       Cell Angles
                    a =      5.129398          alpha =   55.292535
                    b =      5.129398          beta  =   55.292535
                    c =      5.129399          gamma =   55.292537

                       Current cell volume =            84.990269       A**3
                                   density =             2.399364   AMU/A**3
                                           =             3.984237     g/cm^3

                           -------------------------------
                                     Cell Contents
                           -------------------------------
                         Total number of ions in cell =   10
                      Total number of species in cell =    2
                        Max number of any one species =    6

            xxxxxxxxxxxxxxxxxxxxxxxxxxxxxxxxxxxxxxxxxxxxxxxxxxxxxxxxxxxx
            x  Element    Atom        Fractional coordinates of atoms  x
            x            Number           u          v          w      x
            x----------------------------------------------------------x
            x  O            1         0.556260   0.943740   0.250000   x 
            x  O            2         0.943740   0.250000   0.556260   x 
            x  O            3         0.250000   0.556260   0.943740   x 
            x  O            4         0.056260   0.750000   0.443740   x 
            x  O            5         0.750000   0.443740   0.056260   x 
            x  O            6         0.443740   0.056260   0.750000   x 
            x  Al           1         0.147900   0.147900   0.147900   x 
            x  Al           2         0.647900   0.647900   0.647900   x 
            x  Al           3         0.852100   0.852100   0.852100   x 
            x  Al           4         0.352100   0.352100   0.352100   x 
            xxxxxxxxxxxxxxxxxxxxxxxxxxxxxxxxxxxxxxxxxxxxxxxxxxxxxxxxxxxx


                         No user defined ionic velocities

                           -------------------------------
                                   Details of Species
                           -------------------------------

                               Mass of species in AMU
                                    O   15.9994000
                                    Al   26.9815400

                          Electric Quadrupole Moment (Barn)
                                    O   -0.0255800 Isotope 17
                                    Al    0.1466000 Isotope 27

                          Files used for pseudopotentials:
                                    O 2|1.1|17|20|23|20:21(qc=8)
                                    Al 3|2.2|2.2|1.4|4|5|5|30:31:32U2U2

                           -------------------------------
                              k-Points For BZ Sampling
                           -------------------------------
                       MP grid size for SCF calculation is  5  5  5
                            with an offset of   0.000  0.000  0.000
                       Number of kpoints used =            63

                           -------------------------------
                               Symmetry and Constraints
                           -------------------------------

                      Maximum deviation from symmetry =  0.00000         ANG

                      Number of symmetry operations   =           1
                      Number of ionic constraints     =           3
                      Point group of crystal =     1: C1, 1, 1
                      Space group of crystal =   167: R-3c, -R 3 2"c

             Set iprint > 1 for details on symmetry rotations/translations

                         Centre of mass is constrained
             Set iprint > 1 for details of linear ionic constraints

                         Number of cell constraints= 0
                         Cell constraints are:  1 2 3 4 5 6

                         External pressure/stress (GPa)
                          0.00000   0.00000   0.00000
                                    0.00000   0.00000
                                              0.00000
  
+---------------- MEMORY AND SCRATCH DISK ESTIMATES PER PROCESS --------------+
|                                                     Memory          Disk    |
| Baseline code, static data and system overhead      196.0 MB         0.0 MB |
| BLAS internal memory storage                          0.0 MB         0.0 MB |
| Model and support data                               54.2 MB         0.0 MB |
| Electronic energy minimisation requirements           8.4 MB         0.0 MB |
| Force calculation requirements                        2.0 MB         0.0 MB |
|                                               ----------------------------- |
| Approx. total storage required per process          258.5 MB         0.0 MB |
|                                                                             |
| Requirements will fluctuate during execution and may exceed these estimates |
+-----------------------------------------------------------------------------+
Calculating finite basis set correction with  3 cut-off energies.
Calculating total energy with cut-off of  190.000 eV.
------------------------------------------------------------------------ <-- SCF
SCF loop      Energy           Fermi           Energy gain       Timer   <-- SCF
                               energy          per atom          (sec)   <-- SCF
------------------------------------------------------------------------ <-- SCF
Initial  -1.62846476E+003  0.00000000E+000                         7.74  <-- SCF
      1  -2.69103133E+003  1.23536067E+001   1.06256657E+002       8.30  <-- SCF
      2  -2.80956394E+003  7.67475279E+000   1.18532615E+001       8.71  <-- SCF
      3  -2.81140971E+003  7.83260854E+000   1.84577020E-001       9.10  <-- SCF
      4  -2.80795209E+003  9.31511259E+000  -3.45762763E-001       9.58  <-- SCF
      5  -2.80787245E+003  9.14040942E+000  -7.96384760E-003      10.10  <-- SCF
      6  -2.80786929E+003  9.17155039E+000  -3.16160255E-004      10.61  <-- SCF
      7  -2.80786922E+003  9.17929550E+000  -6.10073778E-006      11.03  <-- SCF
      8  -2.80786923E+003  9.17940844E+000   3.50695596E-007      11.36  <-- SCF
------------------------------------------------------------------------ <-- SCF
 
Final energy, E             =  -2807.865731469     eV
Final free energy (E-TS)    =  -2807.869228314     eV
(energies not corrected for finite basis set)
 
NB est. 0K energy (E-0.5TS)      =  -2807.867479891     eV
 
Calculating total energy with cut-off of  195.000 eV.
------------------------------------------------------------------------ <-- SCF
SCF loop      Energy           Fermi           Energy gain       Timer   <-- SCF
                               energy          per atom          (sec)   <-- SCF
------------------------------------------------------------------------ <-- SCF
Initial  -2.80786573E+003  0.00000000E+000                        11.54  <-- SCF
      1  -2.81342569E+003  8.94583248E+000   5.55995856E-001      11.96  <-- SCF
      2  -2.81344090E+003  8.94732764E+000   1.52105027E-003      12.46  <-- SCF
      3  -2.81340301E+003  9.08650863E+000  -3.78853451E-003      12.94  <-- SCF
      4  -2.81340114E+003  9.05748909E+000  -1.87854040E-004      13.43  <-- SCF
      5  -2.81340115E+003  9.05661672E+000   1.14794423E-006      13.78  <-- SCF
      6  -2.81340115E+003  9.05638382E+000  -4.57907316E-009      14.10  <-- SCF
------------------------------------------------------------------------ <-- SCF
 
Final energy, E             =  -2813.398560433     eV
Final free energy (E-TS)    =  -2813.401147691     eV
(energies not corrected for finite basis set)
 
NB est. 0K energy (E-0.5TS)      =  -2813.399854062     eV
 
Calculating total energy with cut-off of  200.000 eV.
------------------------------------------------------------------------ <-- SCF
SCF loop      Energy           Fermi           Energy gain       Timer   <-- SCF
                               energy          per atom          (sec)   <-- SCF
------------------------------------------------------------------------ <-- SCF
Initial  -2.81339856E+003  0.00000000E+000                        14.28  <-- SCF
      1  -2.81925952E+003  8.90930818E+000   5.86096208E-001      14.70  <-- SCF
      2  -2.81927840E+003  8.91132509E+000   1.88744451E-003      15.21  <-- SCF
      3  -2.81923514E+003  9.06408452E+000  -4.32555001E-003      15.70  <-- SCF
      4  -2.81923279E+003  9.03187428E+000  -2.35230696E-004      16.18  <-- SCF
      5  -2.81923281E+003  9.03110741E+000   1.82021671E-006      16.56  <-- SCF
      6  -2.81923281E+003  9.03089315E+000   3.53564850E-009      16.87  <-- SCF
------------------------------------------------------------------------ <-- SCF
 
Final energy, E             =  -2819.231240372     eV
Final free energy (E-TS)    =  -2819.232807378     eV
(energies not corrected for finite basis set)
 
NB est. 0K energy (E-0.5TS)      =  -2819.232023875     eV
 
 For future reference: finite basis dEtot/dlog(Ecut) =    -220.052629eV
 Total energy corrected for finite basis set =   -2819.057406 eV
 
+---------------- MEMORY AND SCRATCH DISK ESTIMATES PER PROCESS --------------+
|                                                     Memory          Disk    |
| Model and support data                               65.5 MB         0.0 MB |
| Electronic energy minimisation requirements           8.4 MB         0.0 MB |
| Geometry minimisation requirements                   10.8 MB         0.0 MB |
|                                               ----------------------------- |
| Approx. total storage required per process           84.6 MB         0.0 MB |
|                                                                             |
| Requirements will fluctuate during execution and may exceed these estimates |
+-----------------------------------------------------------------------------+
 

 ************************************** Forces **************************************
 *                                                                                  *
 *                           Cartesian components (eV/A)                            *
 * -------------------------------------------------------------------------------- *
 *                         x                    y                    z              *
 *                                                                                  *
 * O               1     -0.28086              0.00001             -0.00001         *
 * O               2      0.14041              0.24322              0.00000         *
 * O               3      0.14042             -0.24323             -0.00000         *
 * O               4     -0.14041             -0.24322             -0.00000         *
 * O               5     -0.14042              0.24323              0.00000         *
 * O               6      0.28086             -0.00001              0.00001         *
 * Al              1      0.00000              0.00001              0.28470         *
 * Al              2      0.00001             -0.00001              0.28470         *
 * Al              3      0.00000             -0.00001             -0.28470         *
 * Al              4     -0.00001              0.00001             -0.28470         *
 *                                                                                  *
 ************************************************************************************

 ***************** Stress Tensor *****************
 *                                               *
 *          Cartesian components (GPa)           *
 * --------------------------------------------- *
 *             x             y             z     *
 *                                               *
 *  x    -99.062333      0.000006     -0.000019  *
 *  y      0.000006    -99.062457     -0.000027  *
 *  z     -0.000019     -0.000027    -87.337739  *
 *                                               *
 *  Pressure:   95.1542                          *
 *                                               *
 *************************************************
 LBFGS: finished iteration     0 with enthalpy= -2.81905741E+003 eV
  
 +-----------+-----------------+-----------------+------------+-----+ <-- LBFGS
 | Parameter |      value      |    tolerance    |    units   | OK? | <-- LBFGS
 +-----------+-----------------+-----------------+------------+-----+ <-- LBFGS
 |  dE/ion   |   0.000000E+000 |   1.000000E-005 |         eV | No  | <-- LBFGS
 |  |F|max   |   2.847043E-001 |   1.000000E-002 |       eV/A | No  | <-- LBFGS
 |  |dR|max  |   0.000000E+000 |   1.000000E-003 |          A | No  | <-- LBFGS
 |   Smax    |   9.906246E+001 |   1.000000E-001 |        GPa | No  | <-- LBFGS
 +-----------+-----------------+-----------------+------------+-----+ <-- LBFGS
  

================================================================================
 Starting LBFGS iteration          1 ...
================================================================================
  
 +------------+-------------+-------------+-----------------+ <-- min LBFGS
 |    Step    |   lambda    |   F.delta'  |    enthalpy     | <-- min LBFGS
 +------------+-------------+-------------+-----------------+ <-- min LBFGS
 |  previous  |    0.000000 |    3.219443 |    -2819.057406 | <-- min LBFGS
 +------------+-------------+-------------+-----------------+ <-- min LBFGS
  

--------------------------------------------------------------------------------
 LBFGS: starting iteration         1 with trial guess (lambda=  0.851589)
--------------------------------------------------------------------------------
 
+---------------- MEMORY AND SCRATCH DISK ESTIMATES PER PROCESS --------------+
|                                                     Memory          Disk    |
| Model and support data                               66.0 MB         0.0 MB |
| Electronic energy minimisation requirements           9.2 MB         0.0 MB |
| Geometry minimisation requirements                   12.0 MB         0.0 MB |
|                                               ----------------------------- |
| Approx. total storage required per process           87.2 MB         0.0 MB |
|                                                                             |
| Requirements will fluctuate during execution and may exceed these estimates |
+-----------------------------------------------------------------------------+
 

                           -------------------------------
                                      Unit Cell
                           -------------------------------
        Real Lattice(A)              Reciprocal Lattice(1/A)
     2.5139575     1.4514338     4.5457479        1.249660233   0.721491645   0.460737221
    -2.5139574     1.4514338     4.5457479       -1.249660238   0.721491637   0.460737247
     0.0000001    -2.9028684     4.5457478       -0.000000009  -1.442983302   0.460737098

                       Lattice parameters(A)       Cell Angles
                    a =      5.393558          alpha =   55.563355
                    b =      5.393558          beta  =   55.563354
                    c =      5.393558          gamma =   55.563354

                Current cell volume =            99.520335 A**3
                            density =             2.049054 amu/A**3
                                    =             3.402534 g/cm^3

                           -------------------------------
                                     Cell Contents
                           -------------------------------

            xxxxxxxxxxxxxxxxxxxxxxxxxxxxxxxxxxxxxxxxxxxxxxxxxxxxxxxxxxxxxxxxx
            x  Element         Atom        Fractional coordinates of atoms  x
            x                 Number           u          v          w      x
            x---------------------------------------------------------------x
            x  O                 1         0.556019   0.943981   0.250000   x
            x  O                 2         0.943981   0.250000   0.556019   x
            x  O                 3         0.250000   0.556019   0.943981   x
            x  O                 4         0.056019   0.750000   0.443981   x
            x  O                 5         0.750000   0.443981   0.056019   x
            x  O                 6         0.443981   0.056019   0.750000   x
            x  Al                1         0.147990   0.147990   0.147989   x
            x  Al                2         0.647990   0.647990   0.647989   x
            x  Al                3         0.852011   0.852011   0.852010   x
            x  Al                4         0.352011   0.352011   0.352010   x
            xxxxxxxxxxxxxxxxxxxxxxxxxxxxxxxxxxxxxxxxxxxxxxxxxxxxxxxxxxxxxxxxx


------------------------------------------------------------------------ <-- SCF
SCF loop      Energy           Fermi           Energy gain       Timer   <-- SCF
                               energy          per atom          (sec)   <-- SCF
------------------------------------------------------------------------ <-- SCF
Initial  -2.79934285E+003  0.00000000E+000                        18.34  <-- SCF
      1  -2.82815374E+003  5.48138936E+000   2.88108947E+000      18.80  <-- SCF
      2  -2.82837012E+003  5.49671305E+000   2.16380343E-002      19.25  <-- SCF
      3  -2.82499895E+003  7.03423001E+000  -3.37116965E-001      19.76  <-- SCF
      4  -2.82473142E+003  6.69488204E+000  -2.67532872E-002      20.29  <-- SCF
      5  -2.82473132E+003  6.70235421E+000  -1.01491407E-005      20.86  <-- SCF
      6  -2.82473115E+003  6.70505492E+000  -1.67569842E-005      21.26  <-- SCF
      7  -2.82473115E+003  6.70555974E+000   1.81238103E-007      21.63  <-- SCF
      8  -2.82473115E+003  6.70575232E+000   3.36401301E-008      21.97  <-- SCF
------------------------------------------------------------------------ <-- SCF
 
Final energy, E             =  -2824.727219863     eV
Final free energy (E-TS)    =  -2824.731150686     eV
(energies not corrected for finite basis set)
 
NB est. 0K energy (E-0.5TS)      =  -2824.729185275     eV
 

 ************************************** Forces **************************************
 *                                                                                  *
 *                           Cartesian components (eV/A)                            *
 * -------------------------------------------------------------------------------- *
 *                         x                    y                    z              *
 *                                                                                  *
 * O               1      0.26538              0.00001             -0.00000         *
 * O               2     -0.13270             -0.22984              0.00000         *
 * O               3     -0.13270              0.22983             -0.00000         *
 * O               4      0.13270              0.22984             -0.00000         *
 * O               5      0.13270             -0.22983              0.00000         *
 * O               6     -0.26538             -0.00001              0.00000         *
 * Al              1     -0.00000              0.00001              0.20346         *
 * Al              2      0.00000             -0.00000              0.20346         *
 * Al              3      0.00000             -0.00001             -0.20346         *
 * Al              4     -0.00000              0.00001             -0.20346         *
 *                                                                                  *
 ************************************************************************************

 ***************** Stress Tensor *****************
 *                                               *
 *          Cartesian components (GPa)           *
 * --------------------------------------------- *
 *             x             y             z     *
 *                                               *
 *  x    -47.692454     -0.000002     -0.000004  *
 *  y     -0.000002    -47.692486     -0.000014  *
 *  z     -0.000004     -0.000014    -40.755676  *
 *                                               *
 *  Pressure:   45.3802                          *
 *                                               *
 *************************************************
  
 +------------+-------------+-------------+-----------------+ <-- min LBFGS
 |    Step    |   lambda    |   F.delta'  |    enthalpy     | <-- min LBFGS
 +------------+-------------+-------------+-----------------+ <-- min LBFGS
 |  previous  |    0.000000 |    3.219443 |    -2819.057406 | <-- min LBFGS
 | trial step |    0.851589 |    1.705445 |    -2824.849009 | <-- min LBFGS
 +------------+-------------+-------------+-----------------+ <-- min LBFGS
  

--------------------------------------------------------------------------------
 LBFGS: improving iteration         1 with line minimization (lambda=  1.277383)
--------------------------------------------------------------------------------
 
+---------------- MEMORY AND SCRATCH DISK ESTIMATES PER PROCESS --------------+
|                                                     Memory          Disk    |
| Model and support data                               66.6 MB         0.0 MB |
| Electronic energy minimisation requirements           9.7 MB         0.0 MB |
| Geometry minimisation requirements                   12.6 MB         0.0 MB |
|                                               ----------------------------- |
| Approx. total storage required per process           88.9 MB         0.0 MB |
|                                                                             |
| Requirements will fluctuate during execution and may exceed these estimates |
+-----------------------------------------------------------------------------+
 

                           -------------------------------
                                      Unit Cell
                           -------------------------------
        Real Lattice(A)              Reciprocal Lattice(1/A)
     2.5808862     1.4900752     4.6531219        1.217253470   0.702781570   0.450105386
    -2.5808861     1.4900752     4.6531218       -1.217253477   0.702781558   0.450105423
     0.0000001    -2.9801511     4.6531218       -0.000000013  -1.405563157   0.450105286

                       Lattice parameters(A)       Cell Angles
                    a =      5.525653          alpha =   55.689001
                    b =      5.525653          beta  =   55.689000
                    c =      5.525653          gamma =   55.688999

                Current cell volume =           107.367484 A**3
                            density =             1.899295 amu/A**3
                                    =             3.153854 g/cm^3

                           -------------------------------
                                     Cell Contents
                           -------------------------------

            xxxxxxxxxxxxxxxxxxxxxxxxxxxxxxxxxxxxxxxxxxxxxxxxxxxxxxxxxxxxxxxxx
            x  Element         Atom        Fractional coordinates of atoms  x
            x                 Number           u          v          w      x
            x---------------------------------------------------------------x
            x  O                 1         0.555899   0.944101   0.250000   x
            x  O                 2         0.944101   0.250000   0.555898   x
            x  O                 3         0.250000   0.555899   0.944101   x
            x  O                 4         0.055899   0.750000   0.444101   x
            x  O                 5         0.750000   0.444101   0.055899   x
            x  O                 6         0.444101   0.055899   0.750000   x
            x  Al                1         0.148034   0.148034   0.148034   x
            x  Al                2         0.648034   0.648034   0.648034   x
            x  Al                3         0.851966   0.851966   0.851966   x
            x  Al                4         0.351966   0.351966   0.351966   x
            xxxxxxxxxxxxxxxxxxxxxxxxxxxxxxxxxxxxxxxxxxxxxxxxxxxxxxxxxxxxxxxxx


------------------------------------------------------------------------ <-- SCF
SCF loop      Energy           Fermi           Energy gain       Timer   <-- SCF
                               energy          per atom          (sec)   <-- SCF
------------------------------------------------------------------------ <-- SCF
Initial  -2.81470604E+003  0.00000000E+000                        23.47  <-- SCF
      1  -2.82687463E+003  5.08827037E+000   1.21685938E+000      23.94  <-- SCF
      2  -2.82695154E+003  5.10121844E+000   7.69059230E-003      24.53  <-- SCF
      3  -2.82612370E+003  5.88388185E+000  -8.27834118E-002      25.06  <-- SCF
      4  -2.82603974E+003  5.68924750E+000  -8.39592707E-003      25.60  <-- SCF
      5  -2.82603977E+003  5.69151196E+000   2.79846200E-006      26.17  <-- SCF
      6  -2.82603972E+003  5.69287199E+000  -4.97429974E-006      26.55  <-- SCF
------------------------------------------------------------------------ <-- SCF
 
Final energy, E             =  -2826.035162726     eV
Final free energy (E-TS)    =  -2826.039721291     eV
(energies not corrected for finite basis set)
 
NB est. 0K energy (E-0.5TS)      =  -2826.037442008     eV
 

 ************************************** Forces **************************************
 *                                                                                  *
 *                           Cartesian components (eV/A)                            *
 * -------------------------------------------------------------------------------- *
 *                         x                    y                    z              *
 *                                                                                  *
 * O               1      0.45516              0.00000             -0.00000         *
 * O               2     -0.22758             -0.39419             -0.00000         *
 * O               3     -0.22758              0.39417              0.00000         *
 * O               4      0.22758              0.39419              0.00000         *
 * O               5      0.22758             -0.39417             -0.00000         *
 * O               6     -0.45516             -0.00000              0.00000         *
 * Al              1      0.00000              0.00001              0.20566         *
 * Al              2     -0.00000             -0.00000              0.20566         *
 * Al              3     -0.00000             -0.00001             -0.20566         *
 * Al              4      0.00000              0.00000             -0.20566         *
 *                                                                                  *
 ************************************************************************************

 ***************** Stress Tensor *****************
 *                                               *
 *          Cartesian components (GPa)           *
 * --------------------------------------------- *
 *             x             y             z     *
 *                                               *
 *  x    -30.571392     -0.000004     -0.000000  *
 *  y     -0.000004    -30.571393     -0.000013  *
 *  z     -0.000000     -0.000013    -25.562357  *
 *                                               *
 *  Pressure:   28.9017                          *
 *                                               *
 *************************************************
  
 +------------+-------------+-------------+-----------------+ <-- min LBFGS
 |    Step    |   lambda    |   F.delta'  |    enthalpy     | <-- min LBFGS
 +------------+-------------+-------------+-----------------+ <-- min LBFGS
 |  previous  |    0.000000 |    3.219443 |    -2819.057406 | <-- min LBFGS
 | trial step |    0.851589 |    1.705445 |    -2824.849009 | <-- min LBFGS
 |  line step |    1.277383 |    1.142247 |    -2826.039218 | <-- min LBFGS
 +------------+-------------+-------------+-----------------+ <-- min LBFGS
  
 LBFGS: finished iteration     1 with enthalpy= -2.82603922E+003 eV
  
 +-----------+-----------------+-----------------+------------+-----+ <-- LBFGS
 | Parameter |      value      |    tolerance    |    units   | OK? | <-- LBFGS
 +-----------+-----------------+-----------------+------------+-----+ <-- LBFGS
 |  dE/ion   |   6.981811E-001 |   1.000000E-005 |         eV | No  | <-- LBFGS
 |  |F|max   |   4.551658E-001 |   1.000000E-002 |       eV/A | No  | <-- LBFGS
 |  |dR|max  |   1.873130E-003 |   1.000000E-003 |          A | No  | <-- LBFGS
 |   Smax    |   3.057139E+001 |   1.000000E-001 |        GPa | No  | <-- LBFGS
 +-----------+-----------------+-----------------+------------+-----+ <-- LBFGS
  

================================================================================
 Starting LBFGS iteration          2 ...
================================================================================
  
 +------------+-------------+-------------+-----------------+ <-- min LBFGS
 |    Step    |   lambda    |   F.delta'  |    enthalpy     | <-- min LBFGS
 +------------+-------------+-------------+-----------------+ <-- min LBFGS
 |  previous  |    0.000000 |    1.148427 |    -2826.039218 | <-- min LBFGS
 +------------+-------------+-------------+-----------------+ <-- min LBFGS
  

--------------------------------------------------------------------------------
 LBFGS: starting iteration         2 with trial guess (lambda=  1.000000)
--------------------------------------------------------------------------------
 
+---------------- MEMORY AND SCRATCH DISK ESTIMATES PER PROCESS --------------+
|                                                     Memory          Disk    |
| Model and support data                               67.2 MB         0.0 MB |
| Electronic energy minimisation requirements          10.7 MB         0.0 MB |
| Geometry minimisation requirements                   13.8 MB         0.0 MB |
|                                               ----------------------------- |
| Approx. total storage required per process           91.6 MB         0.0 MB |
|                                                                             |
| Requirements will fluctuate during execution and may exceed these estimates |
+-----------------------------------------------------------------------------+
 

                           -------------------------------
                                      Unit Cell
                           -------------------------------
        Real Lattice(A)              Reciprocal Lattice(1/A)
     2.6928770     1.5547331     4.8267770        1.166630594   0.673554428   0.433911738
    -2.6928769     1.5547331     4.8267769       -1.166630607   0.673554426   0.433911776
     0.0000001    -3.1094669     4.8267768       -0.000000008  -1.347108902   0.433911675

                       Lattice parameters(A)       Cell Angles
                    a =      5.741651          alpha =   55.939774
                    b =      5.741651          beta  =   55.939773
                    c =      5.741651          gamma =   55.939771

                Current cell volume =           121.249762 A**3
                            density =             1.681839 amu/A**3
                                    =             2.792759 g/cm^3

                           -------------------------------
                                     Cell Contents
                           -------------------------------

            xxxxxxxxxxxxxxxxxxxxxxxxxxxxxxxxxxxxxxxxxxxxxxxxxxxxxxxxxxxxxxxxx
            x  Element         Atom        Fractional coordinates of atoms  x
            x                 Number           u          v          w      x
            x---------------------------------------------------------------x
            x  O                 1         0.556625   0.943375   0.250000   x
            x  O                 2         0.943375   0.250000   0.556625   x
            x  O                 3         0.250000   0.556625   0.943375   x
            x  O                 4         0.056625   0.750000   0.443375   x
            x  O                 5         0.750000   0.443375   0.056625   x
            x  O                 6         0.443375   0.056625   0.750000   x
            x  Al                1         0.148177   0.148177   0.148177   x
            x  Al                2         0.648177   0.648177   0.648177   x
            x  Al                3         0.851823   0.851823   0.851823   x
            x  Al                4         0.351823   0.351823   0.351823   x
            xxxxxxxxxxxxxxxxxxxxxxxxxxxxxxxxxxxxxxxxxxxxxxxxxxxxxxxxxxxxxxxxx


------------------------------------------------------------------------ <-- SCF
SCF loop      Energy           Fermi           Energy gain       Timer   <-- SCF
                               energy          per atom          (sec)   <-- SCF
------------------------------------------------------------------------ <-- SCF
Initial  -2.80794766E+003  0.00000000E+000                        28.08  <-- SCF
      1  -2.82787818E+003  3.49210448E+000   1.99305196E+000      28.59  <-- SCF
      2  -2.82805298E+003  3.50243929E+000   1.74800216E-002      29.22  <-- SCF
      3  -2.82596030E+003  4.81103319E+000  -2.09268226E-001      29.78  <-- SCF
      4  -2.82565235E+003  4.44367143E+000  -3.07949054E-002      30.36  <-- SCF
      5  -2.82565368E+003  4.44934324E+000   1.32660148E-004      30.99  <-- SCF
      6  -2.82565353E+003  4.45278754E+000  -1.47823243E-005      31.46  <-- SCF
      7  -2.82565353E+003  4.45358446E+000   2.09715015E-007      31.82  <-- SCF
      8  -2.82565353E+003  4.45370939E+000   4.99599059E-008      32.18  <-- SCF
------------------------------------------------------------------------ <-- SCF
 
Final energy, E             =  -2825.649724497     eV
Final free energy (E-TS)    =  -2825.653529784     eV
(energies not corrected for finite basis set)
 
NB est. 0K energy (E-0.5TS)      =  -2825.651627140     eV
 

 ************************************** Forces **************************************
 *                                                                                  *
 *                           Cartesian components (eV/A)                            *
 * -------------------------------------------------------------------------------- *
 *                         x                    y                    z              *
 *                                                                                  *
 * O               1      0.24135              0.00000             -0.00000         *
 * O               2     -0.12068             -0.20902             -0.00000         *
 * O               3     -0.12068              0.20902             -0.00000         *
 * O               4      0.12068              0.20902              0.00000         *
 * O               5      0.12068             -0.20901              0.00000         *
 * O               6     -0.24135             -0.00000              0.00000         *
 * Al              1      0.00000              0.00000              0.23996         *
 * Al              2     -0.00000             -0.00000              0.23996         *
 * Al              3     -0.00000             -0.00000             -0.23996         *
 * Al              4      0.00000              0.00000             -0.23996         *
 *                                                                                  *
 ************************************************************************************

 ***************** Stress Tensor *****************
 *                                               *
 *          Cartesian components (GPa)           *
 * --------------------------------------------- *
 *             x             y             z     *
 *                                               *
 *  x    -11.578403     -0.000001      0.000001  *
 *  y     -0.000001    -11.578398     -0.000007  *
 *  z      0.000001     -0.000007     -8.535848  *
 *                                               *
 *  Pressure:   10.5642                          *
 *                                               *
 *************************************************
  
 +------------+-------------+-------------+-----------------+ <-- min LBFGS
 |    Step    |   lambda    |   F.delta'  |    enthalpy     | <-- min LBFGS
 +------------+-------------+-------------+-----------------+ <-- min LBFGS
 |  previous  |    0.000000 |    1.148427 |    -2826.039218 | <-- min LBFGS
 | trial step |    1.000000 |    0.458052 |    -2825.934874 | <-- min LBFGS
 +------------+-------------+-------------+-----------------+ <-- min LBFGS
  
 LBFGS: finished iteration     2 with enthalpy= -2.82593487E+003 eV
  
 +-----------+-----------------+-----------------+------------+-----+ <-- LBFGS
 | Parameter |      value      |    tolerance    |    units   | OK? | <-- LBFGS
 +-----------+-----------------+-----------------+------------+-----+ <-- LBFGS
 |  dE/ion   |   1.043431E-002 |   1.000000E-005 |         eV | No  | <-- LBFGS
 |  |F|max   |   2.413545E-001 |   1.000000E-002 |       eV/A | No  | <-- LBFGS
 |  |dR|max  |   3.912728E-003 |   1.000000E-003 |          A | No  | <-- LBFGS
 |   Smax    |   1.157840E+001 |   1.000000E-001 |        GPa | No  | <-- LBFGS
 +-----------+-----------------+-----------------+------------+-----+ <-- LBFGS
  

================================================================================
 Starting LBFGS iteration          3 ...
================================================================================
  
 +------------+-------------+-------------+-----------------+ <-- min LBFGS
 |    Step    |   lambda    |   F.delta'  |    enthalpy     | <-- min LBFGS
 +------------+-------------+-------------+-----------------+ <-- min LBFGS
 |  previous  |    0.000000 |    0.460173 |    -2825.934874 | <-- min LBFGS
 +------------+-------------+-------------+-----------------+ <-- min LBFGS
  
 WARNING in geom_xvec_to_mdl - large cell change detected
                             - consider your initial cell

--------------------------------------------------------------------------------
 LBFGS: starting iteration         3 with trial guess (lambda=  1.000000)
--------------------------------------------------------------------------------
 
+---------------- MEMORY AND SCRATCH DISK ESTIMATES PER PROCESS --------------+
|                                                     Memory          Disk    |
| Model and support data                               67.5 MB         0.0 MB |
| Electronic energy minimisation requirements          11.3 MB         0.0 MB |
| Geometry minimisation requirements                   14.7 MB         0.0 MB |
|                                               ----------------------------- |
| Approx. total storage required per process           93.5 MB         0.0 MB |
|                                                                             |
| Requirements will fluctuate during execution and may exceed these estimates |
+-----------------------------------------------------------------------------+
 

                           -------------------------------
                                      Unit Cell
                           -------------------------------
        Real Lattice(A)              Reciprocal Lattice(1/A)
     2.7683485     1.5983067     4.9370957        1.134825573   0.655191787   0.424216034
    -2.7683484     1.5983067     4.9370956       -1.134825587   0.655191790   0.424216069
     0.0000001    -3.1966138     4.9370954       -0.000000005  -1.310383639   0.424215996

                       Lattice parameters(A)       Cell Angles
                    a =      5.881603          alpha =   56.156800
                    b =      5.881603          beta  =   56.156799
                    c =      5.881603          gamma =   56.156796

                Current cell volume =           131.070121 A**3
                            density =             1.555828 amu/A**3
                                    =             2.583513 g/cm^3

                           -------------------------------
                                     Cell Contents
                           -------------------------------

            xxxxxxxxxxxxxxxxxxxxxxxxxxxxxxxxxxxxxxxxxxxxxxxxxxxxxxxxxxxxxxxxx
            x  Element         Atom        Fractional coordinates of atoms  x
            x                 Number           u          v          w      x
            x---------------------------------------------------------------x
            x  O                 1         0.557235   0.942765   0.250000   x
            x  O                 2         0.942765   0.250000   0.557235   x
            x  O                 3         0.250000   0.557235   0.942765   x
            x  O                 4         0.057235   0.750000   0.442765   x
            x  O                 5         0.750000   0.442765   0.057235   x
            x  O                 6         0.442765   0.057235   0.750000   x
            x  Al                1         0.148382   0.148382   0.148382   x
            x  Al                2         0.648382   0.648382   0.648382   x
            x  Al                3         0.851618   0.851618   0.851618   x
            x  Al                4         0.351618   0.351618   0.351618   x
            xxxxxxxxxxxxxxxxxxxxxxxxxxxxxxxxxxxxxxxxxxxxxxxxxxxxxxxxxxxxxxxxx


------------------------------------------------------------------------ <-- SCF
SCF loop      Energy           Fermi           Energy gain       Timer   <-- SCF
                               energy          per atom          (sec)   <-- SCF
------------------------------------------------------------------------ <-- SCF
Initial  -2.81379145E+003  0.00000000E+000                        33.75  <-- SCF
      1  -2.82572963E+003  3.08479859E+000   1.19381740E+000      34.28  <-- SCF
      2  -2.82582273E+003  3.09520306E+000   9.31013332E-003      34.93  <-- SCF
      3  -2.82491799E+003  3.99669777E+000  -9.04742444E-002      35.52  <-- SCF
      4  -2.82474720E+003  3.72157296E+000  -1.70783411E-002      36.12  <-- SCF
      5  -2.82474814E+003  3.72511901E+000   9.39283745E-005      36.77  <-- SCF
      6  -2.82474807E+003  3.72789819E+000  -7.37836300E-006      37.22  <-- SCF
      7  -2.82474807E+003  3.72859753E+000   1.52046459E-007      37.61  <-- SCF
------------------------------------------------------------------------ <-- SCF
 
Final energy, E             =  -2824.743950812     eV
Final free energy (E-TS)    =  -2824.748068694     eV
(energies not corrected for finite basis set)
 
NB est. 0K energy (E-0.5TS)      =  -2824.746009753     eV
 

 ************************************** Forces **************************************
 *                                                                                  *
 *                           Cartesian components (eV/A)                            *
 * -------------------------------------------------------------------------------- *
 *                         x                    y                    z              *
 *                                                                                  *
 * O               1     -0.10350              0.00000             -0.00000         *
 * O               2      0.05175              0.08963              0.00000         *
 * O               3      0.05175             -0.08963             -0.00000         *
 * O               4     -0.05175             -0.08963             -0.00000         *
 * O               5     -0.05175              0.08963              0.00000         *
 * O               6      0.10350             -0.00000              0.00000         *
 * Al              1     -0.00000              0.00000              0.22602         *
 * Al              2      0.00000             -0.00000              0.22602         *
 * Al              3      0.00000             -0.00000             -0.22602         *
 * Al              4     -0.00000              0.00000             -0.22602         *
 *                                                                                  *
 ************************************************************************************

 ***************** Stress Tensor *****************
 *                                               *
 *          Cartesian components (GPa)           *
 * --------------------------------------------- *
 *             x             y             z     *
 *                                               *
 *  x     -3.299198     -0.000002      0.000007  *
 *  y     -0.000002     -3.299181      0.000004  *
 *  z      0.000007      0.000004     -1.088773  *
 *                                               *
 *  Pressure:    2.5624                          *
 *                                               *
 *************************************************
  
 +------------+-------------+-------------+-----------------+ <-- min LBFGS
 |    Step    |   lambda    |   F.delta'  |    enthalpy     | <-- min LBFGS
 +------------+-------------+-------------+-----------------+ <-- min LBFGS
 |  previous  |    0.000000 |    0.460173 |    -2825.934874 | <-- min LBFGS
 | trial step |    1.000000 |    0.119392 |    -2824.829064 | <-- min LBFGS
 +------------+-------------+-------------+-----------------+ <-- min LBFGS
  
 LBFGS: finished iteration     3 with enthalpy= -2.82482906E+003 eV
  
 +-----------+-----------------+-----------------+------------+-----+ <-- LBFGS
 | Parameter |      value      |    tolerance    |    units   | OK? | <-- LBFGS
 +-----------+-----------------+-----------------+------------+-----+ <-- LBFGS
 |  dE/ion   |   1.105810E-001 |   1.000000E-005 |         eV | No  | <-- LBFGS
 |  |F|max   |   2.260237E-001 |   1.000000E-002 |       eV/A | No  | <-- LBFGS
 |  |dR|max  |   3.377718E-003 |   1.000000E-003 |          A | No  | <-- LBFGS
 |   Smax    |   3.299198E+000 |   1.000000E-001 |        GPa | No  | <-- LBFGS
 +-----------+-----------------+-----------------+------------+-----+ <-- LBFGS
  

================================================================================
 Starting LBFGS iteration          4 ...
================================================================================
  
 +------------+-------------+-------------+-----------------+ <-- min LBFGS
 |    Step    |   lambda    |   F.delta'  |    enthalpy     | <-- min LBFGS
 +------------+-------------+-------------+-----------------+ <-- min LBFGS
 |  previous  |    0.000000 |    0.126020 |    -2824.829064 | <-- min LBFGS
 +------------+-------------+-------------+-----------------+ <-- min LBFGS
  

--------------------------------------------------------------------------------
 LBFGS: starting iteration         4 with trial guess (lambda=  1.000000)
--------------------------------------------------------------------------------
 
+---------------- MEMORY AND SCRATCH DISK ESTIMATES PER PROCESS --------------+
|                                                     Memory          Disk    |
| Model and support data                               67.7 MB         0.0 MB |
| Electronic energy minimisation requirements          11.6 MB         0.0 MB |
| Geometry minimisation requirements                   15.0 MB         0.0 MB |
|                                               ----------------------------- |
| Approx. total storage required per process           94.3 MB         0.0 MB |
|                                                                             |
| Requirements will fluctuate during execution and may exceed these estimates |
+-----------------------------------------------------------------------------+
 

                           -------------------------------
                                      Unit Cell
                           -------------------------------
        Real Lattice(A)              Reciprocal Lattice(1/A)
     2.7965653     1.6145976     4.9711949        1.123375425   0.648581051   0.421306193
    -2.7965652     1.6145976     4.9711949       -1.123375437   0.648581059   0.421306212
     0.0000000    -3.2291957     4.9711946        0.000000001  -1.297162168   0.421306142

                       Lattice parameters(A)       Cell Angles
                    a =      5.927941          alpha =   56.297206
                    b =      5.927941          beta  =   56.297206
                    c =      5.927941          gamma =   56.297203

                Current cell volume =           134.679449 A**3
                            density =             1.514133 amu/A**3
                                    =             2.514276 g/cm^3

                           -------------------------------
                                     Cell Contents
                           -------------------------------

            xxxxxxxxxxxxxxxxxxxxxxxxxxxxxxxxxxxxxxxxxxxxxxxxxxxxxxxxxxxxxxxxx
            x  Element         Atom        Fractional coordinates of atoms  x
            x                 Number           u          v          w      x
            x---------------------------------------------------------------x
            x  O                 1         0.557194   0.942806   0.250000   x
            x  O                 2         0.942807   0.250000   0.557193   x
            x  O                 3         0.250000   0.557194   0.942806   x
            x  O                 4         0.057193   0.750000   0.442806   x
            x  O                 5         0.750000   0.442807   0.057193   x
            x  O                 6         0.442807   0.057194   0.750000   x
            x  Al                1         0.148549   0.148549   0.148549   x
            x  Al                2         0.648549   0.648549   0.648549   x
            x  Al                3         0.851451   0.851451   0.851451   x
            x  Al                4         0.351451   0.351451   0.351451   x
            xxxxxxxxxxxxxxxxxxxxxxxxxxxxxxxxxxxxxxxxxxxxxxxxxxxxxxxxxxxxxxxxx


------------------------------------------------------------------------ <-- SCF
SCF loop      Energy           Fermi           Energy gain       Timer   <-- SCF
                               energy          per atom          (sec)   <-- SCF
------------------------------------------------------------------------ <-- SCF
Initial  -2.82069277E+003  0.00000000E+000                        39.22  <-- SCF
      1  -2.82427915E+003  3.19876985E+000   3.58638639E-001      39.76  <-- SCF
      2  -2.82429706E+003  3.19999895E+000   1.79005539E-003      40.41  <-- SCF
      3  -2.82418756E+003  3.51736912E+000  -1.09495093E-002      41.00  <-- SCF
      4  -2.82416579E+003  3.41982394E+000  -2.17707923E-003      41.62  <-- SCF
      5  -2.82416586E+003  3.42183119E+000   6.59836414E-006      42.22  <-- SCF
      6  -2.82416584E+003  3.42310748E+000  -1.22538314E-006      42.61  <-- SCF
------------------------------------------------------------------------ <-- SCF
 
Final energy, E             =  -2824.160433239     eV
Final free energy (E-TS)    =  -2824.165843026     eV
(energies not corrected for finite basis set)
 
NB est. 0K energy (E-0.5TS)      =  -2824.163138132     eV
 

 ************************************** Forces **************************************
 *                                                                                  *
 *                           Cartesian components (eV/A)                            *
 * -------------------------------------------------------------------------------- *
 *                         x                    y                    z              *
 *                                                                                  *
 * O               1     -0.31997              0.00000              0.00000         *
 * O               2      0.15998              0.27710             -0.00000         *
 * O               3      0.15998             -0.27710             -0.00000         *
 * O               4     -0.15998             -0.27710              0.00000         *
 * O               5     -0.15998              0.27710              0.00000         *
 * O               6      0.31996              0.00000             -0.00000         *
 * Al              1      0.00000              0.00000              0.21529         *
 * Al              2     -0.00000              0.00000              0.21529         *
 * Al              3     -0.00000             -0.00000             -0.21529         *
 * Al              4      0.00000             -0.00000             -0.21529         *
 *                                                                                  *
 ************************************************************************************

 ***************** Stress Tensor *****************
 *                                               *
 *          Cartesian components (GPa)           *
 * --------------------------------------------- *
 *             x             y             z     *
 *                                               *
 *  x     -0.982316      0.000000      0.000000  *
 *  y      0.000000     -0.982306     -0.000005  *
 *  z      0.000000     -0.000005      0.616011  *
 *                                               *
 *  Pressure:    0.4495                          *
 *                                               *
 *************************************************
  
 +------------+-------------+-------------+-----------------+ <-- min LBFGS
 |    Step    |   lambda    |   F.delta'  |    enthalpy     | <-- min LBFGS
 +------------+-------------+-------------+-----------------+ <-- min LBFGS
 |  previous  |    0.000000 |    0.126020 |    -2824.829064 | <-- min LBFGS
 | trial step |    1.000000 |    0.031138 |    -2824.278361 | <-- min LBFGS
 +------------+-------------+-------------+-----------------+ <-- min LBFGS
  
 LBFGS: finished iteration     4 with enthalpy= -2.82427836E+003 eV
  
 +-----------+-----------------+-----------------+------------+-----+ <-- LBFGS
 | Parameter |      value      |    tolerance    |    units   | OK? | <-- LBFGS
 +-----------+-----------------+-----------------+------------+-----+ <-- LBFGS
 |  dE/ion   |   5.507030E-002 |   1.000000E-005 |         eV | No  | <-- LBFGS
 |  |F|max   |   3.199715E-001 |   1.000000E-002 |       eV/A | No  | <-- LBFGS
 |  |dR|max  |   2.489586E-003 |   1.000000E-003 |          A | No  | <-- LBFGS
 |   Smax    |   9.823156E-001 |   1.000000E-001 |        GPa | No  | <-- LBFGS
 +-----------+-----------------+-----------------+------------+-----+ <-- LBFGS
  

================================================================================
 Starting LBFGS iteration          5 ...
================================================================================

Writing analysis data to al2o3_xc-LDA_c-0200_k-5x5x5_geom.castep_bin

Writing model to al2o3_xc-LDA_c-0200_k-5x5x5_geom.check
  
 +------------+-------------+-------------+-----------------+ <-- min LBFGS
 |    Step    |   lambda    |   F.delta'  |    enthalpy     | <-- min LBFGS
 +------------+-------------+-------------+-----------------+ <-- min LBFGS
 |  previous  |    0.000000 |    0.064077 |    -2824.278361 | <-- min LBFGS
 +------------+-------------+-------------+-----------------+ <-- min LBFGS
  

--------------------------------------------------------------------------------
 LBFGS: starting iteration         5 with trial guess (lambda=  1.000000)
--------------------------------------------------------------------------------
 
+---------------- MEMORY AND SCRATCH DISK ESTIMATES PER PROCESS --------------+
|                                                     Memory          Disk    |
| Model and support data                               67.8 MB         0.0 MB |
| Electronic energy minimisation requirements          11.7 MB         0.0 MB |
| Geometry minimisation requirements                   15.2 MB         0.0 MB |
|                                               ----------------------------- |
| Approx. total storage required per process           94.6 MB         0.0 MB |
|                                                                             |
| Requirements will fluctuate during execution and may exceed these estimates |
+-----------------------------------------------------------------------------+
 

                           -------------------------------
                                      Unit Cell
                           -------------------------------
        Real Lattice(A)              Reciprocal Lattice(1/A)
     2.8087199     1.6216151     4.9803944        1.118514067   0.645774350   0.420527978
    -2.8087198     1.6216151     4.9803944       -1.118514078   0.645774358   0.420527993
     0.0000000    -3.2432305     4.9803941        0.000000002  -1.291548774   0.420527937

                       Lattice parameters(A)       Cell Angles
                    a =      5.943305          alpha =   56.404523
                    b =      5.943305          beta  =   56.404523
                    c =      5.943305          gamma =   56.404521

                Current cell volume =           136.104100 A**3
                            density =             1.498284 amu/A**3
                                    =             2.487959 g/cm^3

                           -------------------------------
                                     Cell Contents
                           -------------------------------

            xxxxxxxxxxxxxxxxxxxxxxxxxxxxxxxxxxxxxxxxxxxxxxxxxxxxxxxxxxxxxxxxx
            x  Element         Atom        Fractional coordinates of atoms  x
            x                 Number           u          v          w      x
            x---------------------------------------------------------------x
            x  O                 1         0.556711   0.943290   0.250000   x
            x  O                 2         0.943290   0.250000   0.556710   x
            x  O                 3         0.250000   0.556710   0.943289   x
            x  O                 4         0.056710   0.750000   0.443290   x
            x  O                 5         0.750000   0.443290   0.056710   x
            x  O                 6         0.443290   0.056711   0.750000   x
            x  Al                1         0.148710   0.148710   0.148710   x
            x  Al                2         0.648710   0.648710   0.648710   x
            x  Al                3         0.851290   0.851290   0.851290   x
            x  Al                4         0.351290   0.351290   0.351290   x
            xxxxxxxxxxxxxxxxxxxxxxxxxxxxxxxxxxxxxxxxxxxxxxxxxxxxxxxxxxxxxxxxx


------------------------------------------------------------------------ <-- SCF
SCF loop      Energy           Fermi           Energy gain       Timer   <-- SCF
                               energy          per atom          (sec)   <-- SCF
------------------------------------------------------------------------ <-- SCF
Initial  -2.82257504E+003  0.00000000E+000                        44.25  <-- SCF
      1  -2.82408606E+003  3.26869546E+000   1.51101503E-001      44.79  <-- SCF
      2  -2.82409208E+003  3.26892378E+000   6.02612812E-004      45.44  <-- SCF
      3  -2.82404507E+003  3.40206415E+000  -4.70073448E-003      46.03  <-- SCF
      4  -2.82404195E+003  3.35985865E+000  -3.12278506E-004      46.64  <-- SCF
      5  -2.82404187E+003  3.36605659E+000  -7.75024437E-006      47.23  <-- SCF
      6  -2.82404187E+003  3.36695487E+000  -8.07709603E-008      47.62  <-- SCF
------------------------------------------------------------------------ <-- SCF
 
Final energy, E             =  -2824.036848276     eV
Final free energy (E-TS)    =  -2824.041872992     eV
(energies not corrected for finite basis set)
 
NB est. 0K energy (E-0.5TS)      =  -2824.039360634     eV
 

 ************************************** Forces **************************************
 *                                                                                  *
 *                           Cartesian components (eV/A)                            *
 * -------------------------------------------------------------------------------- *
 *                         x                    y                    z              *
 *                                                                                  *
 * O               1     -0.33929             -0.00000              0.00000         *
 * O               2      0.16965              0.29383             -0.00000         *
 * O               3      0.16964             -0.29383              0.00000         *
 * O               4     -0.16964             -0.29383              0.00000         *
 * O               5     -0.16964              0.29383             -0.00000         *
 * O               6      0.33929              0.00000             -0.00000         *
 * Al              1     -0.00000              0.00000              0.20408         *
 * Al              2     -0.00000             -0.00000              0.20408         *
 * Al              3      0.00000             -0.00000             -0.20408         *
 * Al              4      0.00000              0.00000             -0.20408         *
 *                                                                                  *
 ************************************************************************************

 ***************** Stress Tensor *****************
 *                                               *
 *          Cartesian components (GPa)           *
 * --------------------------------------------- *
 *             x             y             z     *
 *                                               *
 *  x     -0.035633      0.000002     -0.000003  *
 *  y      0.000002     -0.035621      0.000001  *
 *  z     -0.000003      0.000001      1.188455  *
 *                                               *
 *  Pressure:   -0.3724                          *
 *                                               *
 *************************************************
  
 +------------+-------------+-------------+-----------------+ <-- min LBFGS
 |    Step    |   lambda    |   F.delta'  |    enthalpy     | <-- min LBFGS
 +------------+-------------+-------------+-----------------+ <-- min LBFGS
 |  previous  |    0.000000 |    0.064077 |    -2824.278361 | <-- min LBFGS
 | trial step |    1.000000 |    0.028005 |    -2824.058540 | <-- min LBFGS
 +------------+-------------+-------------+-----------------+ <-- min LBFGS
  

--------------------------------------------------------------------------------
 LBFGS: improving iteration         5 with line minimization (lambda=  1.776342)
--------------------------------------------------------------------------------
 
+---------------- MEMORY AND SCRATCH DISK ESTIMATES PER PROCESS --------------+
|                                                     Memory          Disk    |
| Model and support data                               69.9 MB         0.0 MB |
| Electronic energy minimisation requirements          11.9 MB         0.0 MB |
| Geometry minimisation requirements                   15.4 MB         0.0 MB |
|                                               ----------------------------- |
| Approx. total storage required per process           97.2 MB         0.0 MB |
|                                                                             |
| Requirements will fluctuate during execution and may exceed these estimates |
+-----------------------------------------------------------------------------+
 

                           -------------------------------
                                      Unit Cell
                           -------------------------------
        Real Lattice(A)              Reciprocal Lattice(1/A)
     2.8181560     1.6270631     4.9875364        1.114768903   0.643612082   0.419925797
    -2.8181559     1.6270630     4.9875363       -1.114768913   0.643612091   0.419925809
     0.0000000    -3.2541264     4.9875361        0.000000003  -1.287224245   0.419925762

                       Lattice parameters(A)       Cell Angles
                    a =      5.955238          alpha =   56.487438
                    b =      5.955238          beta  =   56.487439
                    c =      5.955238          gamma =   56.487437

                Current cell volume =           137.216631 A**3
                            density =             1.486136 amu/A**3
                                    =             2.467787 g/cm^3

                           -------------------------------
                                     Cell Contents
[...]
 |  previous  |    0.000000 |    0.003166 |    -2824.103972 | <-- min LBFGS
 | trial step |    1.000000 |   -0.000795 |    -2824.115923 | <-- min LBFGS
 +------------+-------------+-------------+-----------------+ <-- min LBFGS
  
 LBFGS: finished iteration    20 with enthalpy= -2.82411592E+003 eV
  
 +-----------+-----------------+-----------------+------------+-----+ <-- LBFGS
 | Parameter |      value      |    tolerance    |    units   | OK? | <-- LBFGS
 +-----------+-----------------+-----------------+------------+-----+ <-- LBFGS
 |  dE/ion   |   1.195127E-003 |   1.000000E-005 |         eV | No  | <-- LBFGS
 |  |F|max   |   3.810422E-003 |   1.000000E-002 |       eV/A | Yes | <-- LBFGS
 |  |dR|max  |   1.409560E-003 |   1.000000E-003 |          A | No  | <-- LBFGS
 |   Smax    |   8.172789E-002 |   1.000000E-001 |        GPa | Yes | <-- LBFGS
 +-----------+-----------------+-----------------+------------+-----+ <-- LBFGS
  

================================================================================
 Starting LBFGS iteration         21 ...
================================================================================
  
 +------------+-------------+-------------+-----------------+ <-- min LBFGS
 |    Step    |   lambda    |   F.delta'  |    enthalpy     | <-- min LBFGS
 +------------+-------------+-------------+-----------------+ <-- min LBFGS
 |  previous  |    0.000000 |    0.002068 |    -2824.115923 | <-- min LBFGS
 +------------+-------------+-------------+-----------------+ <-- min LBFGS
  

--------------------------------------------------------------------------------
 LBFGS: starting iteration        21 with trial guess (lambda=  1.000000)
--------------------------------------------------------------------------------

                           -------------------------------
                                      Unit Cell
                           -------------------------------
        Real Lattice(A)              Reciprocal Lattice(1/A)
     2.8136939     1.6244867     4.9644893        1.116536739   0.644632776   0.421875283
    -2.8136940     1.6244867     4.9644894       -1.116536732   0.644632782   0.421875252
    -0.0000001    -3.2489741     4.9644892        0.000000009  -1.289265595   0.421875169

                       Lattice parameters(A)       Cell Angles
                    a =      5.933126          alpha =   56.619058
                    b =      5.933126          beta  =   56.619058
                    c =      5.933126          gamma =   56.619059

                Current cell volume =           136.150397 A**3
                            density =             1.497774 amu/A**3
                                    =             2.487113 g/cm^3

                           -------------------------------
                                     Cell Contents
                           -------------------------------

            xxxxxxxxxxxxxxxxxxxxxxxxxxxxxxxxxxxxxxxxxxxxxxxxxxxxxxxxxxxxxxxxx
            x  Element         Atom        Fractional coordinates of atoms  x
            x                 Number           u          v          w      x
            x---------------------------------------------------------------x
            x  O                 1         0.552410   0.947593   0.249998   x
            x  O                 2         0.947593   0.249998   0.552410   x
            x  O                 3         0.249998   0.552410   0.947593   x
            x  O                 4         0.052407   0.750002   0.447590   x
            x  O                 5         0.750002   0.447590   0.052407   x
            x  O                 6         0.447590   0.052407   0.750002   x
            x  Al                1         0.151341   0.151341   0.151341   x
            x  Al                2         0.651338   0.651338   0.651338   x
            x  Al                3         0.848659   0.848659   0.848659   x
            x  Al                4         0.348662   0.348662   0.348662   x
            xxxxxxxxxxxxxxxxxxxxxxxxxxxxxxxxxxxxxxxxxxxxxxxxxxxxxxxxxxxxxxxxx


------------------------------------------------------------------------ <-- SCF
SCF loop      Energy           Fermi           Energy gain       Timer   <-- SCF
                               energy          per atom          (sec)   <-- SCF
------------------------------------------------------------------------ <-- SCF
Initial  -2.82410266E+003  0.00000000E+000                       184.45  <-- SCF
      1  -2.82410550E+003  3.34772662E+000   2.83074669E-004     184.98  <-- SCF
      2  -2.82410550E+003  3.34772660E+000   4.94738277E-008     185.36  <-- SCF
      3  -2.82410547E+003  3.34865021E+000  -2.96410550E-006     185.74  <-- SCF
      4  -2.82410547E+003  3.34857980E+000   5.60924958E-008     186.13  <-- SCF
------------------------------------------------------------------------ <-- SCF
 
Final energy, E             =  -2824.100701668     eV
Final free energy (E-TS)    =  -2824.105466810     eV
(energies not corrected for finite basis set)
 
NB est. 0K energy (E-0.5TS)      =  -2824.103084239     eV
 

 ************************************** Forces **************************************
 *                                                                                  *
 *                           Cartesian components (eV/A)                            *
 * -------------------------------------------------------------------------------- *
 *                         x                    y                    z              *
 *                                                                                  *
 * O               1     -0.00561             -0.00000             -0.00003         *
 * O               2      0.00280              0.00486             -0.00003         *
 * O               3      0.00281             -0.00486             -0.00003         *
 * O               4     -0.00280             -0.00486              0.00003         *
 * O               5     -0.00281              0.00486              0.00003         *
 * O               6      0.00561              0.00000              0.00003         *
 * Al              1      0.00000             -0.00000              0.00096         *
 * Al              2      0.00000             -0.00000              0.00104         *
 * Al              3     -0.00000              0.00000             -0.00096         *
 * Al              4      0.00000              0.00000             -0.00104         *
 *                                                                                  *
 ************************************************************************************

 ***************** Stress Tensor *****************
 *                                               *
 *          Cartesian components (GPa)           *
 * --------------------------------------------- *
 *             x             y             z     *
 *                                               *
 *  x     -0.048952      0.000000     -0.000002  *
 *  y      0.000000     -0.048951     -0.000000  *
 *  z     -0.000002     -0.000000     -0.062661  *
 *                                               *
 *  Pressure:    0.0535                          *
 *                                               *
 *************************************************
  
 +------------+-------------+-------------+-----------------+ <-- min LBFGS
 |    Step    |   lambda    |   F.delta'  |    enthalpy     | <-- min LBFGS
 +------------+-------------+-------------+-----------------+ <-- min LBFGS
 |  previous  |    0.000000 |    0.002068 |    -2824.115923 | <-- min LBFGS
 | trial step |    1.000000 |    0.001287 |    -2824.115933 | <-- min LBFGS
 +------------+-------------+-------------+-----------------+ <-- min LBFGS
  
 LBFGS: finished iteration    21 with enthalpy= -2.82411593E+003 eV
  
 +-----------+-----------------+-----------------+------------+-----+ <-- LBFGS
 | Parameter |      value      |    tolerance    |    units   | OK? | <-- LBFGS
 +-----------+-----------------+-----------------+------------+-----+ <-- LBFGS
 |  dE/ion   |   9.422693E-007 |   1.000000E-005 |         eV | Yes | <-- LBFGS
 |  |F|max   |   5.613120E-003 |   1.000000E-002 |       eV/A | Yes | <-- LBFGS
 |  |dR|max  |   3.973243E-004 |   1.000000E-003 |          A | Yes | <-- LBFGS
 |   Smax    |   6.266090E-002 |   1.000000E-001 |        GPa | Yes | <-- LBFGS
 +-----------+-----------------+-----------------+------------+-----+ <-- LBFGS
  
 LBFGS: Geometry optimization completed successfully.

================================================================================
 LBFGS: Final Configuration:
================================================================================

                           -------------------------------
                                      Unit Cell
                           -------------------------------
        Real Lattice(A)              Reciprocal Lattice(1/A)
     2.8136939     1.6244867     4.9644893        1.116536739   0.644632776   0.421875283
    -2.8136940     1.6244867     4.9644894       -1.116536732   0.644632782   0.421875252
    -0.0000001    -3.2489741     4.9644892        0.000000009  -1.289265595   0.421875169

                       Lattice parameters(A)       Cell Angles
                    a =      5.933126          alpha =   56.619058
                    b =      5.933126          beta  =   56.619058
                    c =      5.933126          gamma =   56.619059

                Current cell volume =           136.150397 A**3
                            density =             1.497774 amu/A**3
                                    =             2.487113 g/cm^3

                           -------------------------------
                                     Cell Contents
                           -------------------------------

            xxxxxxxxxxxxxxxxxxxxxxxxxxxxxxxxxxxxxxxxxxxxxxxxxxxxxxxxxxxxxxxxx
            x  Element         Atom        Fractional coordinates of atoms  x
            x                 Number           u          v          w      x
            x---------------------------------------------------------------x
            x  O                 1         0.552410   0.947593   0.249998   x
            x  O                 2         0.947593   0.249998   0.552410   x
            x  O                 3         0.249998   0.552410   0.947593   x
            x  O                 4         0.052407   0.750002   0.447590   x
            x  O                 5         0.750002   0.447590   0.052407   x
            x  O                 6         0.447590   0.052407   0.750002   x
            x  Al                1         0.151341   0.151341   0.151341   x
            x  Al                2         0.651338   0.651338   0.651338   x
            x  Al                3         0.848659   0.848659   0.848659   x
            x  Al                4         0.348662   0.348662   0.348662   x
            xxxxxxxxxxxxxxxxxxxxxxxxxxxxxxxxxxxxxxxxxxxxxxxxxxxxxxxxxxxxxxxxx


 LBFGS: Final Enthalpy     = -2.82411593E+003 eV
 LBFGS: Final <frequency>  =     816.99965 cm-1
 LBFGS: Final bulk modulus =     192.83577 GPa
  
  **********************************************************
  *** There were at least     1 warnings during this run ***
  *** => please check the whole of this file carefully!  ***
  **********************************************************

 ************************************** Forces **************************************
 *                                                                                  *
 *                           Cartesian components (eV/A)                            *
 * -------------------------------------------------------------------------------- *
 *                         x                    y                    z              *
 *                                                                                  *
 * O               1     -0.00561             -0.00000             -0.00003         *
 * O               2      0.00280              0.00486             -0.00003         *
 * O               3      0.00281             -0.00486             -0.00003         *
 * O               4     -0.00280             -0.00486              0.00003         *
 * O               5     -0.00281              0.00486              0.00003         *
 * O               6      0.00561              0.00000              0.00003         *
 * Al              1      0.00000             -0.00000              0.00096         *
 * Al              2      0.00000             -0.00000              0.00104         *
 * Al              3     -0.00000              0.00000             -0.00096         *
 * Al              4      0.00000              0.00000             -0.00104         *
 *                                                                                  *
 ************************************************************************************

 ***************** Stress Tensor *****************
 *                                               *
 *          Cartesian components (GPa)           *
 * --------------------------------------------- *
 *             x             y             z     *
 *                                               *
 *  x     -0.048952      0.000000     -0.000002  *
 *  y      0.000000     -0.048951     -0.000000  *
 *  z     -0.000002     -0.000000     -0.062661  *
 *                                               *
 *  Pressure:    0.0535                          *
 *                                               *
 *************************************************

 Pseudo atomic calculation performed for O 2s2 2p4

 Converged in 20 iterations to a total energy of -388.4671 eV

 Pseudo atomic calculation performed for Al 3s2 3p1

 Converged in 15 iterations to a total energy of -105.5906 eV
Charge spilling parameter for spin component 1 = 0.65%

            Orbital Populations       
     Ion    Atom   Orbital             Charge
  -------------------------------------------
      O     1      S                    1.964
      O     1      Px                   1.592
      O     1      Py                   1.644
      O     1      Pz                   1.628
      O     2      S                    1.964
      O     2      Px                   1.631
      O     2      Py                   1.605
      O     2      Pz                   1.628
      O     3      S                    1.964
      O     3      Px                   1.631
      O     3      Py                   1.605
      O     3      Pz                   1.628
      O     4      S                    1.964
      O     4      Px                   1.631
      O     4      Py                   1.605
      O     4      Pz                   1.628
      O     5      S                    1.964
      O     5      Px                   1.631
      O     5      Py                   1.605
      O     5      Pz                   1.628
      O     6      S                    1.964
      O     6      Px                   1.592
      O     6      Py                   1.644
      O     6      Pz                   1.628
     Al     1      S                    0.792
     Al     1      Px                   0.323
     Al     1      Py                   0.323
     Al     1      Pz                   0.320
     Al     2      S                    0.792
     Al     2      Px                   0.323
     Al     2      Py                   0.323
     Al     2      Pz                   0.320
     Al     3      S                    0.792
     Al     3      Px                   0.323
     Al     3      Py                   0.323
     Al     3      Pz                   0.320
     Al     4      S                    0.792
     Al     4      Px                   0.323
     Al     4      Py                   0.323
     Al     4      Pz                   0.320
  -------------------------------------------
                           Total:      48.000
  -------------------------------------------

     Atomic Populations (Mulliken)
     -----------------------------
Species          Ion     s      p      d      f     Total  Charge (e)
=====================================================================
  O               1     1.96   4.86   0.00   0.00   6.83    -0.83
  O               2     1.96   4.86   0.00   0.00   6.83    -0.83
  O               3     1.96   4.86   0.00   0.00   6.83    -0.83
  O               4     1.96   4.86   0.00   0.00   6.83    -0.83
  O               5     1.96   4.86   0.00   0.00   6.83    -0.83
  O               6     1.96   4.86   0.00   0.00   6.83    -0.83
  Al              1     0.79   0.97   0.00   0.00   1.76     1.24
  Al              2     0.79   0.97   0.00   0.00   1.76     1.24
  Al              3     0.79   0.97   0.00   0.00   1.76     1.24
  Al              4     0.79   0.97   0.00   0.00   1.76     1.24
=====================================================================

                 Bond                   Population      Length (A)
======================================================================
               O 5 -- Al 4                   0.32        2.21386
               O 3 -- Al 2                   0.32        2.21386
               O 6 -- Al 4                   0.32        2.21386
               O 1 -- Al 2                   0.32        2.21386
               O 4 -- Al 4                   0.32        2.21386
               O 2 -- Al 2                   0.32        2.21386
               O 5 -- Al 1                   0.32        2.21387
               O 4 -- Al 1                   0.32        2.21387
               O 2 -- Al 3                   0.32        2.21387
               O 3 -- Al 3                   0.32        2.21387
               O 6 -- Al 1                   0.32        2.21387
               O 1 -- Al 3                   0.32        2.21387
               O 1 -- Al 1                   0.29        2.24835
               O 2 -- Al 1                   0.29        2.24835
               O 6 -- Al 3                   0.29        2.24835
               O 3 -- Al 1                   0.29        2.24835
               O 4 -- Al 3                   0.29        2.24835
               O 5 -- Al 3                   0.29        2.24835
               O 1 -- Al 4                   0.29        2.24838
               O 6 -- Al 2                   0.29        2.24838
               O 3 -- Al 4                   0.29        2.24838
               O 2 -- Al 4                   0.29        2.24838
               O 5 -- Al 2                   0.29        2.24838
               O 4 -- Al 2                   0.29        2.24838
              Al 1 -- Al 4                  -0.33        2.93879
              Al 2 -- Al 3                  -0.33        2.93879
               O 1 -- O 3                   -0.16        2.94755
               O 1 -- O 2                   -0.16        2.94755
               O 2 -- O 3                   -0.16        2.94755
               O 5 -- O 6                   -0.16        2.94755
               O 4 -- O 5                   -0.16        2.94755
               O 4 -- O 6                   -0.16        2.94755
======================================================================


Writing analysis data to al2o3_xc-LDA_c-0200_k-5x5x5_geom.castep_bin

Writing model to al2o3_xc-LDA_c-0200_k-5x5x5_geom.check
 
 A BibTeX formatted list of references used in this run has been written to 
 al2o3_xc-LDA_c-0200_k-5x5x5_geom.bib
 
Initialisation time =      6.86 s
Calculation time    =    181.49 s
Finalisation time   =      0.23 s
Total time          =    188.57 s
Peak Memory Use     = 569916 kB
  
Overall parallel efficiency rating: Excellent (92%)                             
  
Data was distributed by:-
k-point (9-way); efficiency rating: Excellent (94%)                             
  
Parallel notes:
1) Calculation only took 188.4 s, so efficiency estimates may be inaccurate.    
