 +-------------------------------------------------+
 |                                                 |
 |      CCC   AA    SSS  TTTTT  EEEEE  PPPP        |
 |     C     A  A  S       T    E      P   P       |
 |     C     AAAA   SS     T    EEE    PPPP        |
 |     C     A  A     S    T    E      P           |
 |      CCC  A  A  SSS     T    EEEEE  P           |
 |                                                 |
 +-------------------------------------------------+
 |                                                 |
 | Welcome to Academic Release CASTEP version 19.11|          
 | Ab Initio Total Energy Program                  |
 |                                                 |
 | Authors:                                        |
 | M. Segall, M. Probert, C. Pickard, P. Hasnip,   |
 | S. Clark, K. Refson, J. R. Yates, M. Payne      |
 |                                                 |
 | Contributors:                                   |
 | P. Lindan, P. Haynes, J. White, V. Milman,      |
 | N. Govind, M. Gibson, P. Tulip, V. Cocula,      |
 | B. Montanari, D. Quigley, M. Glover,            |
 | L. Bernasconi, A. Perlov, M. Plummer,           |
 | E. McNellis, J. Meyer, J. Gale, D. Jochym       |
 | J. Aarons, B. Walker, R. Gillen, D. Jones       |
 | T. Green, I. J. Bush, C. J. Armstrong,          |
 | E. J. Higgins, E. L. Brown, M. S. McFly,        |
 | J. Wilkins, B-C. Shih, P. J. P. Byrne           |
 |                                                 |
 | Copyright (c) 2000 - 2018                       |
 |                                                 |
 |     Distributed under the terms of an           |
 |     Agreement between the United Kingdom        |
 |     Car-Parrinello (UKCP) Consortium,           |
 |     Daresbury Laboratory and Accelrys, Inc.     |
 |                                                 |
 | Please cite                                     |
 |                                                 |
 |     "First principles methods using CASTEP"     |
 |                                                 |
 |         Zeitschrift fuer Kristallographie       |
 |           220(5-6) pp. 567-570 (2005)           |
 |                                                 |
 | S. J. Clark, M. D. Segall, C. J. Pickard,       |
 | P. J. Hasnip, M. J. Probert, K. Refson,         |
 | M. C. Payne                                     |
 |                                                 |
 |       in all publications arising from          |
 |              your use of CASTEP                 |
 |                                                 |
 +-------------------------------------------------+
 |                                                 |
 |              http://www.castep.org              |
 |                                                 |
 +-------------------------------------------------+



 Compiled for linux_x86_64_gfortran7.0 on Fri, 31 Jan 2020 20:20:28 +0100
 from code version e1fe0d666396+ Castep191_branch Thu, 24 Oct 2019 13:54:03 +0100
 Compiler: GNU Fortran 7.4.0; Optimisation: fast
 MATHLIBS: default (LAPACK version 3.7.1)
 FFT Lib : default
 Fundamental constants values: CODATA 2014

 Run started: Sat, 06 Nov 2021 01:12:52 +0100

 Atomic calculation performed for O: 1s2 2s2 2p4

 Converged in 57 iterations to an ae energy of -2034.019 eV

   ============================================================                
   | Pseudopotential Report - Date of generation  6-11-2021   |                
   ------------------------------------------------------------                
   | Element: O Ionic charge:  6.00 Level of theory: PBESOL   |                
   | Atomic Solver: Koelling-Harmon                           |                
   |                                                          |                
   |               Reference Electronic Structure             |                
   |         Orbital         Occupation         Energy        |                
   |            2s              2.000           -0.875        |                
   |            2p              4.000           -0.330        |                
   |                                                          |                
   |                 Pseudopotential Definition               |                
   |        Beta     l      e      Rc     scheme   norm       |                
   |          1      0   -0.875   1.100     qc      0         |                
   |          2      0    0.250   1.100     qc      0         |                
   |          3      1   -0.330   1.100     qc      0         |                
   |          4      1    0.250   1.100     qc      0         |                
   |         loc     2    0.000   1.100     pn      0         |                
   |                                                          |                
   | Augmentation charge Rinner = 0.769                       |                
   | Partial core correction Rc = 0.769                       |                
   ------------------------------------------------------------                
   | "2|1.1|17|20|23|20:21(qc=8)"                             |                
   ------------------------------------------------------------                
   |      Author: Chris J. Pickard, Cambridge University      |                
   ============================================================                

 Atomic calculation performed for Al: 1s2 2s2 2p6 3s2 3p1

 Converged in 55 iterations to an ae energy of -6590.489 eV

   ============================================================                
   | Pseudopotential Report - Date of generation  6-11-2021   |                
   ------------------------------------------------------------                
   | Element: Al Ionic charge:  3.00 Level of theory: PBESOL  |                
   | Atomic Solver: Koelling-Harmon                           |                
   |                                                          |                
   |               Reference Electronic Structure             |                
   |         Orbital         Occupation         Energy        |                
   |            3s              2.000           -0.284        |                
   |            3p              1.000           -0.099        |                
   |                                                          |                
   |                 Pseudopotential Definition               |                
   |        Beta     l      e      Rc     scheme   norm       |                
   |          1      0   -0.284   2.192     qc      0         |                
   |          2      0    0.250   2.192     qc      0         |                
   |          3      1   -0.099   2.192     qc      0         |                
   |          4      1    0.250   2.192     qc      0         |                
   |          5      2    0.000   2.000     qc      0         |                
   |          6      2    0.250   2.000     qc      0         |                
   |         loc     3    0.000   2.192     pn      0         |                
   |                                                          |                
   | Augmentation charge Rinner = 1.398                       |                
   | Partial core correction Rc = 1.398                       |                
   ------------------------------------------------------------                
   | "3|2.2|2.2|1.4|4|5|5|30:31:32U2U2"                       |                
   ------------------------------------------------------------                
   |      Author: Chris J. Pickard, Cambridge University      |                
   ============================================================                

 Pseudo atomic calculation performed for O 2s2 2p4

 Converged in 21 iterations to a total energy of -430.8269 eV

 Pseudo atomic calculation performed for Al 3s2 3p1

 Converged in 11 iterations to a total energy of -105.9168 eV
 Calculation parallelised over 9 processes.
 Data is distributed by k-point(9-way)

 ************************************ Title ************************************
 

 ***************************** General Parameters ******************************
  
 output verbosity                               : normal  (1)
 write checkpoint data to                       : al2o3_xc-PBESOL_c-0600_k-5x5x5_geom.check
 type of calculation                            : geometry optimization
 stress calculation                             : off
 density difference calculation                 : off
 electron localisation func (ELF) calculation   : off
 Hirshfeld analysis                             : off
 unlimited duration calculation
 timing information                             : on
 memory usage estimate                          : on
 write extra output files                       : on
 write final potential to formatted file        : off
 write final density to formatted file          : off
 write structure in CIF formatted file          : on
 write structure in CELL formatted file         : on
 write BibTeX reference list                    : on
 write OTFG pseudopotential files               : on
 write electrostatic potential file             : on
 write bands file                               : on
 checkpoint writing                             : both castep_bin and check files
  
 output         length unit                     : A
 output           mass unit                     : amu
 output           time unit                     : ps
 output         charge unit                     : e
 output           spin unit                     : hbar/2
 output         energy unit                     : eV
 output          force unit                     : eV/A
 output       velocity unit                     : A/ps
 output       pressure unit                     : GPa
 output     inv_length unit                     : 1/A
 output      frequency unit                     : cm-1
 output force constant unit                     : eV/A**2
 output         volume unit                     : A**3
 output   IR intensity unit                     : (D/A)**2/amu
 output         dipole unit                     : D
 output         efield unit                     : eV/A/e
 output        entropy unit                     : J/mol/K
  
 wavefunctions paging                           : none
 random number generator seed                   : randomised (11252461)
 data distribution                              : optimal for this architecture
 optimization strategy                          : maximize speed(+++)

 *********************** Exchange-Correlation Parameters ***********************
  
 using functional                               : PBE for solids (2008)
 relativistic treatment                         : Koelling-Harmon
 DFT+D: Semi-empirical dispersion correction    : off

 ************************* Pseudopotential Parameters **************************
  
 pseudopotential representation                 : reciprocal space
 <beta|phi> representation                      : reciprocal space
 spin-orbit coupling                            : off

 **************************** Basis Set Parameters *****************************
  
 plane wave basis set cut-off                   :   600.0000   eV
 size of standard grid                          :     1.7500
 size of   fine   gmax                          :    21.9610   1/A
 finite basis set correction                    : automatic
 number of sample energies                      :          3
           sample  spacing                      :     5.0000   eV

 **************************** Electronic Parameters ****************************
  
 number of  electrons                           :  48.00    
 net charge of system                           :  0.000    
 treating system as non-spin-polarized
 number of bands                                :         29

 ********************* Electronic Minimization Parameters **********************
  
 Method: Treating system as metallic with density mixing treatment of electrons,
         and number of  SD  steps               :          1
         and number of  CG  steps               :          4
  
 total energy / atom convergence tol.           : 0.1000E-04   eV
 eigen-energy convergence tolerance             : 0.1000E-05   eV
 max force / atom convergence tol.              : ignored
 convergence tolerance window                   :          3   cycles
 max. number of SCF cycles                      :         30
 number of fixed-spin iterations                :         10
 smearing scheme                                : Gaussian
 smearing width                                 : 0.2000       eV
 Fermi energy convergence tolerance             : 0.2721E-13   eV
 periodic dipole correction                     : NONE

 ************************** Density Mixing Parameters **************************
  
 density-mixing scheme                          : Broyden
 max. length of mixing history                  :         20
 charge density mixing amplitude                : 0.8000    
 cut-off energy for mixing                      :  600.0       eV

 *********************** Population Analysis Parameters ************************
  
 Population analysis with cutoff                :  3.000       A
 Population analysis output                     : summary and pdos components

 ********************** Geometry Optimization Parameters ***********************
  
 optimization method                            : LBFGS
 max. no. of LBFGS updates                      : unbounded
 variable cell method                           : fixed basis quality
 max. number of steps                           :        150
 estimated bulk modulus                         :  500.0       GPa
 estimated <frequency>                          :  1668.       cm-1
 geom line minimiser                            : on
 with line minimiser tolerance                  :     0.4000
 total energy convergence tolerance             : 0.1000E-04   eV/atom
        max ionic |force| tolerance             : 0.1000E-01   eV/A
 max ionic |displacement| tolerance             : 0.1000E-02   A
   max |stress component| tolerance             : 0.1000       GPa
 convergence tolerance window                   :          2   steps
 backup results every                           :          5   steps
 write geom trajectory file                     : on

 *******************************************************************************
  

                           -------------------------------
                                      Unit Cell
                           -------------------------------
        Real Lattice(A)                      Reciprocal Lattice(1/A)
     2.3801000     1.3741510     4.3310000        1.319941454   0.762068577   0.483582396
    -2.3801000     1.3741510     4.3310000       -1.319941454   0.762068577   0.483582396
     0.0000000    -2.7483030     4.3310000       -0.000000000  -1.524137154   0.483582220

                       Lattice parameters(A)       Cell Angles
                    a =      5.129398          alpha =   55.292535
                    b =      5.129398          beta  =   55.292535
                    c =      5.129399          gamma =   55.292537

                       Current cell volume =            84.990269       A**3
                                   density =             2.399364   AMU/A**3
                                           =             3.984237     g/cm^3

                           -------------------------------
                                     Cell Contents
                           -------------------------------
                         Total number of ions in cell =   10
                      Total number of species in cell =    2
                        Max number of any one species =    6

            xxxxxxxxxxxxxxxxxxxxxxxxxxxxxxxxxxxxxxxxxxxxxxxxxxxxxxxxxxxx
            x  Element    Atom        Fractional coordinates of atoms  x
            x            Number           u          v          w      x
            x----------------------------------------------------------x
            x  O            1         0.556260   0.943740   0.250000   x 
            x  O            2         0.943740   0.250000   0.556260   x 
            x  O            3         0.250000   0.556260   0.943740   x 
            x  O            4         0.056260   0.750000   0.443740   x 
            x  O            5         0.750000   0.443740   0.056260   x 
            x  O            6         0.443740   0.056260   0.750000   x 
            x  Al           1         0.147900   0.147900   0.147900   x 
            x  Al           2         0.647900   0.647900   0.647900   x 
            x  Al           3         0.852100   0.852100   0.852100   x 
            x  Al           4         0.352100   0.352100   0.352100   x 
            xxxxxxxxxxxxxxxxxxxxxxxxxxxxxxxxxxxxxxxxxxxxxxxxxxxxxxxxxxxx


                         No user defined ionic velocities

                           -------------------------------
                                   Details of Species
                           -------------------------------

                               Mass of species in AMU
                                    O   15.9994000
                                    Al   26.9815400

                          Electric Quadrupole Moment (Barn)
                                    O   -0.0255800 Isotope 17
                                    Al    0.1466000 Isotope 27

                          Files used for pseudopotentials:
                                    O 2|1.1|17|20|23|20:21(qc=8)
                                    Al 3|2.2|2.2|1.4|4|5|5|30:31:32U2U2

                           -------------------------------
                              k-Points For BZ Sampling
                           -------------------------------
                       MP grid size for SCF calculation is  5  5  5
                            with an offset of   0.000  0.000  0.000
                       Number of kpoints used =            63

                           -------------------------------
                               Symmetry and Constraints
                           -------------------------------

                      Maximum deviation from symmetry =  0.00000         ANG

                      Number of symmetry operations   =           1
                      Number of ionic constraints     =           3
                      Point group of crystal =     1: C1, 1, 1
                      Space group of crystal =   167: R-3c, -R 3 2"c

             Set iprint > 1 for details on symmetry rotations/translations

                         Centre of mass is constrained
             Set iprint > 1 for details of linear ionic constraints

                         Number of cell constraints= 0
                         Cell constraints are:  1 2 3 4 5 6

                         External pressure/stress (GPa)
                          0.00000   0.00000   0.00000
                                    0.00000   0.00000
                                              0.00000
  
+---------------- MEMORY AND SCRATCH DISK ESTIMATES PER PROCESS --------------+
|                                                     Memory          Disk    |
| Baseline code, static data and system overhead      196.0 MB         0.0 MB |
| BLAS internal memory storage                          0.0 MB         0.0 MB |
| Model and support data                              127.4 MB         0.0 MB |
| Electronic energy minimisation requirements          34.8 MB         0.0 MB |
| Force calculation requirements                        6.8 MB         0.0 MB |
|                                               ----------------------------- |
| Approx. total storage required per process          358.2 MB         0.0 MB |
|                                                                             |
| Requirements will fluctuate during execution and may exceed these estimates |
+-----------------------------------------------------------------------------+
Calculating finite basis set correction with  3 cut-off energies.
Calculating total energy with cut-off of  590.000 eV.
------------------------------------------------------------------------ <-- SCF
SCF loop      Energy           Fermi           Energy gain       Timer   <-- SCF
                               energy          per atom          (sec)   <-- SCF
------------------------------------------------------------------------ <-- SCF
Initial  -2.24854902E+003  0.00000000E+000                         8.71  <-- SCF
      1  -2.87508770E+003  1.27015206E+001   6.26538685E+001      11.21  <-- SCF
      2  -3.08793243E+003  3.01226045E+000   2.12844726E+001      13.48  <-- SCF
      3  -3.09375116E+003  3.06334535E+000   5.81873430E-001      15.67  <-- SCF
      4  -3.08948878E+003  6.99131537E+000  -4.26238367E-001      18.17  <-- SCF
      5  -3.08648812E+003  5.50333809E+000  -3.00065908E-001      20.66  <-- SCF
      6  -3.08653781E+003  5.54606086E+000   4.96925554E-003      23.53  <-- SCF
      7  -3.08653344E+003  5.61142476E+000  -4.37583945E-004      26.09  <-- SCF
      8  -3.08653348E+003  5.65059540E+000   4.62322120E-006      28.62  <-- SCF
      9  -3.08653330E+003  5.63981760E+000  -1.84640637E-005      30.97  <-- SCF
     10  -3.08653330E+003  5.63843852E+000  -1.84282028E-008      32.80  <-- SCF
     11  -3.08653330E+003  5.63831089E+000   2.22975244E-007      34.61  <-- SCF
------------------------------------------------------------------------ <-- SCF
 
Final energy, E             =  -3086.533301861     eV
Final free energy (E-TS)    =  -3086.533301861     eV
(energies not corrected for finite basis set)
 
NB est. 0K energy (E-0.5TS)      =  -3086.533301861     eV
 
Calculating total energy with cut-off of  595.000 eV.
------------------------------------------------------------------------ <-- SCF
SCF loop      Energy           Fermi           Energy gain       Timer   <-- SCF
                               energy          per atom          (sec)   <-- SCF
------------------------------------------------------------------------ <-- SCF
Initial  -3.08653331E+003  0.00000000E+000                        35.53  <-- SCF
      1  -3.08677957E+003  5.60638944E+000   2.46256582E-002      37.38  <-- SCF
      2  -3.08677967E+003  5.60637883E+000   1.01923125E-005      39.60  <-- SCF
      3  -3.08677974E+003  5.61845711E+000   6.60426297E-006      41.83  <-- SCF
      4  -3.08677970E+003  5.61269509E+000  -3.33619403E-006      43.53  <-- SCF
------------------------------------------------------------------------ <-- SCF
 
Final energy, E             =  -3086.779702344     eV
Final free energy (E-TS)    =  -3086.779702344     eV
(energies not corrected for finite basis set)
 
NB est. 0K energy (E-0.5TS)      =  -3086.779702344     eV
 
Calculating total energy with cut-off of  600.000 eV.
------------------------------------------------------------------------ <-- SCF
SCF loop      Energy           Fermi           Energy gain       Timer   <-- SCF
                               energy          per atom          (sec)   <-- SCF
------------------------------------------------------------------------ <-- SCF
Initial  -3.08677972E+003  0.00000000E+000                        44.30  <-- SCF
      1  -3.08700458E+003  5.60428703E+000   2.24863280E-002      46.17  <-- SCF
      2  -3.08700467E+003  5.60428791E+000   9.30978365E-006      48.38  <-- SCF
      3  -3.08700473E+003  5.61651472E+000   5.74458136E-006      50.64  <-- SCF
      4  -3.08700470E+003  5.61084294E+000  -3.31644394E-006      52.30  <-- SCF
------------------------------------------------------------------------ <-- SCF
 
Final energy, E             =  -3087.004696799     eV
Final free energy (E-TS)    =  -3087.004696799     eV
(energies not corrected for finite basis set)
 
NB est. 0K energy (E-0.5TS)      =  -3087.004696799     eV
 
 For future reference: finite basis dEtot/dlog(Ecut) =     -27.798670eV
 Total energy corrected for finite basis set =   -3087.003626 eV
 
+---------------- MEMORY AND SCRATCH DISK ESTIMATES PER PROCESS --------------+
|                                                     Memory          Disk    |
| Model and support data                              137.2 MB         0.0 MB |
| Electronic energy minimisation requirements          34.8 MB         0.0 MB |
| Geometry minimisation requirements                   44.8 MB         0.0 MB |
|                                               ----------------------------- |
| Approx. total storage required per process          216.8 MB         0.0 MB |
|                                                                             |
| Requirements will fluctuate during execution and may exceed these estimates |
+-----------------------------------------------------------------------------+
 

 ************************************** Forces **************************************
 *                                                                                  *
 *                           Cartesian components (eV/A)                            *
 * -------------------------------------------------------------------------------- *
 *                         x                    y                    z              *
 *                                                                                  *
 * O               1      0.02639             -0.00000             -0.00002         *
 * O               2     -0.01320             -0.02286              0.00002         *
 * O               3     -0.01320              0.02286              0.00001         *
 * O               4      0.01319              0.02287              0.00001         *
 * O               5      0.01321             -0.02286             -0.00001         *
 * O               6     -0.02638             -0.00001              0.00001         *
 * Al              1      0.00000              0.00001              0.01216         *
 * Al              2     -0.00000              0.00000              0.01216         *
 * Al              3     -0.00001             -0.00001             -0.01216         *
 * Al              4     -0.00000              0.00000             -0.01216         *
 *                                                                                  *
 ************************************************************************************

 ***************** Stress Tensor *****************
 *                                               *
 *          Cartesian components (GPa)           *
 * --------------------------------------------- *
 *             x             y             z     *
 *                                               *
 *  x     -5.437839     -0.000037      0.000016  *
 *  y     -0.000037     -5.437866     -0.000028  *
 *  z      0.000016     -0.000028     -4.962722  *
 *                                               *
 *  Pressure:    5.2795                          *
 *                                               *
 *************************************************
 LBFGS: finished iteration     0 with enthalpy= -3.08700363E+003 eV
  
 +-----------+-----------------+-----------------+------------+-----+ <-- LBFGS
 | Parameter |      value      |    tolerance    |    units   | OK? | <-- LBFGS
 +-----------+-----------------+-----------------+------------+-----+ <-- LBFGS
 |  dE/ion   |   0.000000E+000 |   1.000000E-005 |         eV | No  | <-- LBFGS
 |  |F|max   |   2.640095E-002 |   1.000000E-002 |       eV/A | No  | <-- LBFGS
 |  |dR|max  |   0.000000E+000 |   1.000000E-003 |          A | No  | <-- LBFGS
 |   Smax    |   5.437866E+000 |   1.000000E-001 |        GPa | No  | <-- LBFGS
 +-----------+-----------------+-----------------+------------+-----+ <-- LBFGS
  

================================================================================
 Starting LBFGS iteration          1 ...
================================================================================
  
 +------------+-------------+-------------+-----------------+ <-- min LBFGS
 |    Step    |   lambda    |   F.delta'  |    enthalpy     | <-- min LBFGS
 +------------+-------------+-------------+-----------------+ <-- min LBFGS
 |  previous  |    0.000000 |    0.178540 |    -3087.003626 | <-- min LBFGS
 +------------+-------------+-------------+-----------------+ <-- min LBFGS
  

--------------------------------------------------------------------------------
 LBFGS: starting iteration         1 with trial guess (lambda=  1.000000)
--------------------------------------------------------------------------------
 
+---------------- MEMORY AND SCRATCH DISK ESTIMATES PER PROCESS --------------+
|                                                     Memory          Disk    |
| Model and support data                              137.4 MB         0.0 MB |
| Electronic energy minimisation requirements          35.0 MB         0.0 MB |
| Geometry minimisation requirements                   45.2 MB         0.0 MB |
|                                               ----------------------------- |
| Approx. total storage required per process          217.6 MB         0.0 MB |
|                                                                             |
| Requirements will fluctuate during execution and may exceed these estimates |
+-----------------------------------------------------------------------------+
 

                           -------------------------------
                                      Unit Cell
                           -------------------------------
        Real Lattice(A)              Reciprocal Lattice(1/A)
     2.3887284     1.3791328     4.3453290        1.315173639   0.759315830   0.481987749
    -2.3887284     1.3791327     4.3453291       -1.315173666   0.759315895   0.481987720
    -0.0000001    -2.7582662     4.3453290        0.000000043  -1.518631752   0.481987601

                       Lattice parameters(A)       Cell Angles
                    a =      5.146835          alpha =   55.306043
                    b =      5.146835          beta  =   55.306045
                    c =      5.146836          gamma =   55.306045

                Current cell volume =            85.890836 A**3
                            density =             2.374206 amu/A**3
                                    =             3.942462 g/cm^3

                           -------------------------------
                                     Cell Contents
                           -------------------------------

            xxxxxxxxxxxxxxxxxxxxxxxxxxxxxxxxxxxxxxxxxxxxxxxxxxxxxxxxxxxxxxxxx
            x  Element         Atom        Fractional coordinates of atoms  x
            x                 Number           u          v          w      x
            x---------------------------------------------------------------x
            x  O                 1         0.556287   0.943713   0.250000   x
            x  O                 2         0.943714   0.250000   0.556286   x
            x  O                 3         0.250000   0.556287   0.943713   x
            x  O                 4         0.056286   0.750000   0.443713   x
            x  O                 5         0.750000   0.443714   0.056286   x
            x  O                 6         0.443713   0.056287   0.750000   x
            x  Al                1         0.147905   0.147905   0.147904   x
            x  Al                2         0.647905   0.647905   0.647904   x
            x  Al                3         0.852096   0.852096   0.852095   x
            x  Al                4         0.352096   0.352096   0.352095   x
            xxxxxxxxxxxxxxxxxxxxxxxxxxxxxxxxxxxxxxxxxxxxxxxxxxxxxxxxxxxxxxxxx


------------------------------------------------------------------------ <-- SCF
SCF loop      Energy           Fermi           Energy gain       Timer   <-- SCF
                               energy          per atom          (sec)   <-- SCF
------------------------------------------------------------------------ <-- SCF
Initial  -3.08672581E+003  0.00000000E+000                        60.10  <-- SCF
      1  -3.08710229E+003  5.28517303E+000   3.76486380E-002      62.69  <-- SCF
      2  -3.08710319E+003  5.28515022E+000   8.98062229E-005      65.65  <-- SCF
      3  -3.08706741E+003  5.70326190E+000  -3.57820494E-003      68.41  <-- SCF
      4  -3.08701859E+003  5.51566002E+000  -4.88149935E-003      70.87  <-- SCF
      5  -3.08701929E+003  5.51124785E+000   6.98841854E-005      73.51  <-- SCF
      6  -3.08701929E+003  5.51272906E+000  -4.62652591E-007      75.19  <-- SCF
      7  -3.08701928E+003  5.51736661E+000  -8.62305079E-007      76.76  <-- SCF
------------------------------------------------------------------------ <-- SCF
 
Final energy, E             =  -3087.019280159     eV
Final free energy (E-TS)    =  -3087.019280159     eV
(energies not corrected for finite basis set)
 
NB est. 0K energy (E-0.5TS)      =  -3087.019280159     eV
 

 ************************************** Forces **************************************
 *                                                                                  *
 *                           Cartesian components (eV/A)                            *
 * -------------------------------------------------------------------------------- *
 *                         x                    y                    z              *
 *                                                                                  *
 * O               1      0.02186              0.00001             -0.00004         *
 * O               2     -0.01097             -0.01893             -0.00003         *
 * O               3     -0.01094              0.01894              0.00001         *
 * O               4      0.01097              0.01892              0.00001         *
 * O               5      0.01097             -0.01894              0.00003         *
 * O               6     -0.02186             -0.00002              0.00001         *
 * Al              1     -0.00004              0.00004              0.00410         *
 * Al              2      0.00001             -0.00004              0.00408         *
 * Al              3      0.00001              0.00001             -0.00407         *
 * Al              4     -0.00000              0.00001             -0.00410         *
 *                                                                                  *
 ************************************************************************************

 ***************** Stress Tensor *****************
 *                                               *
 *          Cartesian components (GPa)           *
 * --------------------------------------------- *
 *             x             y             z     *
 *                                               *
 *  x     -2.654851      0.000005      0.000063  *
 *  y      0.000005     -2.654725     -0.000006  *
 *  z      0.000063     -0.000006     -2.592730  *
 *                                               *
 *  Pressure:    2.6341                          *
 *                                               *
 *************************************************
  
 +------------+-------------+-------------+-----------------+ <-- min LBFGS
 |    Step    |   lambda    |   F.delta'  |    enthalpy     | <-- min LBFGS
 +------------+-------------+-------------+-----------------+ <-- min LBFGS
 |  previous  |    0.000000 |    0.178540 |    -3087.003626 | <-- min LBFGS
 | trial step |    1.000000 |    0.089625 |    -3087.009843 | <-- min LBFGS
 +------------+-------------+-------------+-----------------+ <-- min LBFGS
  

--------------------------------------------------------------------------------
 LBFGS: improving iteration         1 with line minimization (lambda=  2.007982)
--------------------------------------------------------------------------------
 
+---------------- MEMORY AND SCRATCH DISK ESTIMATES PER PROCESS --------------+
|                                                     Memory          Disk    |
| Model and support data                              168.1 MB         0.0 MB |
| Electronic energy minimisation requirements          36.9 MB         0.0 MB |
| Geometry minimisation requirements                   47.4 MB         0.0 MB |
|                                               ----------------------------- |
| Approx. total storage required per process          252.5 MB         0.0 MB |
|                                                                             |
| Requirements will fluctuate during execution and may exceed these estimates |
+-----------------------------------------------------------------------------+
 

                           -------------------------------
                                      Unit Cell
                           -------------------------------
        Real Lattice(A)              Reciprocal Lattice(1/A)
     2.3974256     1.3841543     4.3597724        1.310402496   0.756561162   0.480390980
    -2.3974257     1.3841541     4.3597725       -1.310402550   0.756561292   0.480390923
    -0.0000002    -2.7683089     4.3597723        0.000000086  -1.513122508   0.480390861

                       Lattice parameters(A)       Cell Angles
                    a =      5.164412          alpha =   55.319566
                    b =      5.164412          beta  =   55.319571
                    c =      5.164412          gamma =   55.319568

                Current cell volume =            86.805002 A**3
                            density =             2.349203 amu/A**3
                                    =             3.900943 g/cm^3

                           -------------------------------
                                     Cell Contents
                           -------------------------------

            xxxxxxxxxxxxxxxxxxxxxxxxxxxxxxxxxxxxxxxxxxxxxxxxxxxxxxxxxxxxxxxxx
            x  Element         Atom        Fractional coordinates of atoms  x
            x                 Number           u          v          w      x
            x---------------------------------------------------------------x
            x  O                 1         0.556313   0.943687   0.250000   x
            x  O                 2         0.943687   0.250000   0.556313   x
            x  O                 3         0.250000   0.556313   0.943687   x
            x  O                 4         0.056313   0.750000   0.443687   x
            x  O                 5         0.750000   0.443687   0.056313   x
            x  O                 6         0.443687   0.056313   0.750000   x
            x  Al                1         0.147909   0.147909   0.147909   x
            x  Al                2         0.647909   0.647909   0.647909   x
            x  Al                3         0.852091   0.852091   0.852091   x
            x  Al                4         0.352091   0.352091   0.352091   x
            xxxxxxxxxxxxxxxxxxxxxxxxxxxxxxxxxxxxxxxxxxxxxxxxxxxxxxxxxxxxxxxxx


------------------------------------------------------------------------ <-- SCF
SCF loop      Energy           Fermi           Energy gain       Timer   <-- SCF
                               energy          per atom          (sec)   <-- SCF
------------------------------------------------------------------------ <-- SCF
Initial  -3.08672208E+003  0.00000000E+000                        86.10  <-- SCF
      1  -3.08708539E+003  5.17689003E+000   3.63311613E-002      89.33  <-- SCF
      2  -3.08708625E+003  5.17686376E+000   8.60202690E-005      93.21  <-- SCF
      3  -3.08705098E+003  5.59807720E+000  -3.52682084E-003      96.79  <-- SCF
      4  -3.08700060E+003  5.40761310E+000  -5.03785317E-003      99.93  <-- SCF
      5  -3.08700133E+003  5.40310667E+000   7.21675399E-005     103.29  <-- SCF
      6  -3.08700132E+003  5.40459101E+000  -4.45848323E-007     105.44  <-- SCF
      7  -3.08700131E+003  5.40924146E+000  -8.62952835E-007     107.51  <-- SCF
------------------------------------------------------------------------ <-- SCF
 
Final energy, E             =  -3087.001312405     eV
Final free energy (E-TS)    =  -3087.001312405     eV
(energies not corrected for finite basis set)
 
NB est. 0K energy (E-0.5TS)      =  -3087.001312405     eV
 

 ************************************** Forces **************************************
 *                                                                                  *
 *                           Cartesian components (eV/A)                            *
 * -------------------------------------------------------------------------------- *
 *                         x                    y                    z              *
 *                                                                                  *
 * O               1      0.01811              0.00001             -0.00003         *
 * O               2     -0.00908             -0.01565             -0.00002         *
 * O               3     -0.00906              0.01571              0.00000         *
 * O               4      0.00909              0.01565             -0.00000         *
 * O               5      0.00908             -0.01571              0.00002         *
 * O               6     -0.01813             -0.00000              0.00001         *
 * Al              1     -0.00003              0.00002             -0.00359         *
 * Al              2      0.00001             -0.00004             -0.00362         *
 * Al              3      0.00001              0.00000              0.00363         *
 * Al              4      0.00000              0.00001              0.00359         *
 *                                                                                  *
 ************************************************************************************

 ***************** Stress Tensor *****************
 *                                               *
 *          Cartesian components (GPa)           *
 * --------------------------------------------- *
 *             x             y             z     *
 *                                               *
 *  x      0.088177      0.000034      0.000008  *
 *  y      0.000034      0.088240      0.000070  *
 *  z      0.000008      0.000070     -0.333788  *
 *                                               *
 *  Pressure:    0.0525                          *
 *                                               *
 *************************************************
  
 +------------+-------------+-------------+-----------------+ <-- min LBFGS
 |    Step    |   lambda    |   F.delta'  |    enthalpy     | <-- min LBFGS
 +------------+-------------+-------------+-----------------+ <-- min LBFGS
 |  previous  |    0.000000 |    0.178540 |    -3087.003626 | <-- min LBFGS
 | trial step |    1.000000 |    0.089625 |    -3087.009843 | <-- min LBFGS
 |  line step |    2.007982 |    0.001586 |    -3087.001693 | <-- min LBFGS
 +------------+-------------+-------------+-----------------+ <-- min LBFGS
  
 LBFGS: finished iteration     1 with enthalpy= -3.08700169E+003 eV
  
 +-----------+-----------------+-----------------+------------+-----+ <-- LBFGS
 | Parameter |      value      |    tolerance    |    units   | OK? | <-- LBFGS
 +-----------+-----------------+-----------------+------------+-----+ <-- LBFGS
 |  dE/ion   |   1.932356E-004 |   1.000000E-005 |         eV | No  | <-- LBFGS
 |  |F|max   |   1.814755E-002 |   1.000000E-002 |       eV/A | No  | <-- LBFGS
 |  |dR|max  |   2.559916E-004 |   1.000000E-003 |          A | Yes | <-- LBFGS
 |   Smax    |   3.337884E-001 |   1.000000E-001 |        GPa | No  | <-- LBFGS
 +-----------+-----------------+-----------------+------------+-----+ <-- LBFGS
  

================================================================================
 Starting LBFGS iteration          2 ...
================================================================================
  
 +------------+-------------+-------------+-----------------+ <-- min LBFGS
 |    Step    |   lambda    |   F.delta'  |    enthalpy     | <-- min LBFGS
 +------------+-------------+-------------+-----------------+ <-- min LBFGS
 |  previous  |    0.000000 |    0.007988 |    -3087.001693 | <-- min LBFGS
 +------------+-------------+-------------+-----------------+ <-- min LBFGS
  

--------------------------------------------------------------------------------
 LBFGS: starting iteration         2 with trial guess (lambda=  1.000000)
--------------------------------------------------------------------------------

                           -------------------------------
                                      Unit Cell
                           -------------------------------
        Real Lattice(A)              Reciprocal Lattice(1/A)
     2.3973763     1.3841255     4.3609149        1.310429447   0.756576795   0.480265168
    -2.3973765     1.3841254     4.3609150       -1.310429462   0.756576867   0.480265096
    -0.0000002    -2.7682521     4.3609150        0.000000055  -1.513153647   0.480264934

                       Lattice parameters(A)       Cell Angles
                    a =      5.165346          alpha =   55.307470
                    b =      5.165346          beta  =   55.307474
                    c =      5.165346          gamma =   55.307476

                Current cell volume =            86.824177 A**3
                            density =             2.348684 amu/A**3
                                    =             3.900082 g/cm^3

                           -------------------------------
                                     Cell Contents
                           -------------------------------

            xxxxxxxxxxxxxxxxxxxxxxxxxxxxxxxxxxxxxxxxxxxxxxxxxxxxxxxxxxxxxxxxx
            x  Element         Atom        Fractional coordinates of atoms  x
            x                 Number           u          v          w      x
            x---------------------------------------------------------------x
            x  O                 1         0.556332   0.943668   0.250000   x
            x  O                 2         0.943668   0.250000   0.556332   x
            x  O                 3         0.250000   0.556332   0.943668   x
            x  O                 4         0.056332   0.750000   0.443668   x
            x  O                 5         0.750000   0.443668   0.056332   x
            x  O                 6         0.443668   0.056332   0.750000   x
            x  Al                1         0.147908   0.147908   0.147908   x
            x  Al                2         0.647908   0.647908   0.647908   x
            x  Al                3         0.852092   0.852092   0.852092   x
            x  Al                4         0.352092   0.352092   0.352092   x
            xxxxxxxxxxxxxxxxxxxxxxxxxxxxxxxxxxxxxxxxxxxxxxxxxxxxxxxxxxxxxxxxx


------------------------------------------------------------------------ <-- SCF
SCF loop      Energy           Fermi           Energy gain       Timer   <-- SCF
                               energy          per atom          (sec)   <-- SCF
------------------------------------------------------------------------ <-- SCF
Initial  -3.08699705E+003  0.00000000E+000                       118.89  <-- SCF
      1  -3.08700015E+003  5.39954603E+000   3.09910692E-004     122.01  <-- SCF
      2  -3.08700015E+003  5.39954603E+000   3.60226867E-007     124.12  <-- SCF
      3  -3.08700009E+003  5.41014027E+000  -6.38101693E-006     127.03  <-- SCF
      4  -3.08700006E+003  5.40517660E+000  -3.05873765E-006     128.98  <-- SCF
------------------------------------------------------------------------ <-- SCF
 
Final energy, E             =  -3087.000058875     eV
Final free energy (E-TS)    =  -3087.000058875     eV
(energies not corrected for finite basis set)
 
NB est. 0K energy (E-0.5TS)      =  -3087.000058875     eV
 

 ************************************** Forces **************************************
 *                                                                                  *
 *                           Cartesian components (eV/A)                            *
 * -------------------------------------------------------------------------------- *
 *                         x                    y                    z              *
 *                                                                                  *
 * O               1      0.02040              0.00000              0.00000         *
 * O               2     -0.01020             -0.01767             -0.00000         *
 * O               3     -0.01021              0.01768             -0.00000         *
 * O               4      0.01020              0.01767              0.00000         *
 * O               5      0.01021             -0.01768              0.00000         *
 * O               6     -0.02040             -0.00000             -0.00000         *
 * Al              1     -0.00000              0.00001             -0.00013         *
 * Al              2      0.00000             -0.00000             -0.00013         *
 * Al              3     -0.00000             -0.00000              0.00013         *
 * Al              4     -0.00000              0.00000              0.00013         *
 *                                                                                  *
 ************************************************************************************

 ***************** Stress Tensor *****************
 *                                               *
 *          Cartesian components (GPa)           *
 * --------------------------------------------- *
 *             x             y             z     *
 *                                               *
 *  x     -0.029933      0.000029      0.000010  *
 *  y      0.000029     -0.029974     -0.000045  *
 *  z      0.000010     -0.000045     -0.345422  *
 *                                               *
 *  Pressure:    0.1351                          *
 *                                               *
 *************************************************
  
 +------------+-------------+-------------+-----------------+ <-- min LBFGS
 |    Step    |   lambda    |   F.delta'  |    enthalpy     | <-- min LBFGS
 +------------+-------------+-------------+-----------------+ <-- min LBFGS
 |  previous  |    0.000000 |    0.007988 |    -3087.001693 | <-- min LBFGS
 | trial step |    1.000000 |    0.007991 |    -3087.001461 | <-- min LBFGS
 +------------+-------------+-------------+-----------------+ <-- min LBFGS
  

--------------------------------------------------------------------------------
 LBFGS: improving iteration         2 with line minimization (lambda=**********)
--------------------------------------------------------------------------------

                           -------------------------------
                                      Unit Cell
                           -------------------------------
        Real Lattice(A)              Reciprocal Lattice(1/A)
     2.4088336     1.3908071     4.0955588        1.304199005   0.752962537   0.511373742
    -2.4088079     1.3907820     4.0955526       -1.304208168   0.752976134   0.511377333
    -0.0000089    -2.7814462     4.0955101        0.000007193  -1.505955456   0.511401813

                       Lattice parameters(A)       Cell Angles
                    a =      4.950801          alpha =   58.229227
                    b =      4.950776          beta  =   58.229644
                    c =      4.950722          gamma =   58.228539

                Current cell volume =            82.321838 A**3
                            density =             2.477138 amu/A**3
                                    =             4.113384 g/cm^3

                           -------------------------------
                                     Cell Contents
                           -------------------------------

            xxxxxxxxxxxxxxxxxxxxxxxxxxxxxxxxxxxxxxxxxxxxxxxxxxxxxxxxxxxxxxxxx
            x  Element         Atom        Fractional coordinates of atoms  x
            x                 Number           u          v          w      x
            x---------------------------------------------------------------x
            x  O                 1         0.551962   0.948041   0.250004   x
            x  O                 2         0.948043   0.249992   0.551969   x
            x  O                 3         0.249998   0.551954   0.948047   x
            x  O                 4         0.051957   0.750012   0.448032   x
            x  O                 5         0.749995   0.448049   0.051950   x
            x  O                 6         0.448044   0.051955   0.749998   x
            x  Al                1         0.148212   0.148198   0.148215   x
            x  Al                2         0.648214   0.648220   0.648201   x
            x  Al                3         0.851785   0.851789   0.851789   x
            x  Al                4         0.351790   0.351790   0.351793   x
            xxxxxxxxxxxxxxxxxxxxxxxxxxxxxxxxxxxxxxxxxxxxxxxxxxxxxxxxxxxxxxxxx


------------------------------------------------------------------------ <-- SCF
SCF loop      Energy           Fermi           Energy gain       Timer   <-- SCF
                               energy          per atom          (sec)   <-- SCF
------------------------------------------------------------------------ <-- SCF
Initial  -3.07631438E+003  0.00000000E+000                       140.13  <-- SCF
      1  -3.08938856E+003  6.71882562E+000   1.30741815E+000     142.23  <-- SCF
      2  -3.08963512E+003  6.71459405E+000   2.46555789E-002     144.83  <-- SCF
      3  -3.08710514E+003  5.53826168E+000  -2.52997950E-001     147.21  <-- SCF
      4  -3.08653869E+003  6.36042141E+000  -5.66452570E-002     149.64  <-- SCF
      5  -3.08652698E+003  6.32880704E+000  -1.17087173E-003     152.23  <-- SCF
      6  -3.08652581E+003  6.30036624E+000  -1.16316882E-004     154.92  <-- SCF
      7  -3.08652567E+003  6.31092769E+000  -1.42076988E-005     157.33  <-- SCF
      8  -3.08652568E+003  6.31145980E+000   3.23056038E-007     159.14  <-- SCF
      9  -3.08652568E+003  6.31148431E+000   6.86033055E-008     160.86  <-- SCF
------------------------------------------------------------------------ <-- SCF
 
Final energy, E             =  -3086.525676503     eV
Final free energy (E-TS)    =  -3086.525676503     eV
(energies not corrected for finite basis set)
 
NB est. 0K energy (E-0.5TS)      =  -3086.525676503     eV
 

 ************************************** Forces **************************************
 *                                                                                  *
 *                           Cartesian components (eV/A)                            *
 * -------------------------------------------------------------------------------- *
 *                         x                    y                    z              *
 *                                                                                  *
 * O               1      0.44543              0.00019             -0.00078         *
 * O               2     -0.22316             -0.38541             -0.00011         *
 * O               3     -0.22284              0.38654             -0.00013         *
 * O               4      0.22349              0.38541             -0.00024         *
 * O               5      0.22350             -0.38659              0.00052         *
 * O               6     -0.44602             -0.00003              0.00058         *
 * Al              1     -0.00098              0.00070             -0.82525         *
 * Al              2      0.00045             -0.00128             -0.82689         *
 * Al              3      0.00041             -0.00013              0.82691         *
 * Al              4     -0.00028              0.00060              0.82539         *
 *                                                                                  *
 ************************************************************************************

 ***************** Stress Tensor *****************
 *                                               *
 *          Cartesian components (GPa)           *
 * --------------------------------------------- *
 *             x             y             z     *
 *                                               *
 *  x     -4.549830      0.002002     -0.000921  *
 *  y      0.002002     -4.551886      0.001697  *
 *  z     -0.000921      0.001697    -30.964794  *
 *                                               *
 *  Pressure:   13.3555                          *
 *                                               *
 *************************************************
  
 +------------+-------------+-------------+-----------------+ <-- min LBFGS
 |    Step    |   lambda    |   F.delta'  |    enthalpy     | <-- min LBFGS
 +------------+-------------+-------------+-----------------+ <-- min LBFGS
 |  previous  |    0.000000 |    0.007988 |    -3087.001693 | <-- min LBFGS
 | trial step |    1.000000 |    0.007991 |    -3087.001461 | <-- min LBFGS
 |  line step | -231.276547 |    0.623543 |    -3086.529972 | <-- min LBFGS
 +------------+-------------+-------------+-----------------+ <-- min LBFGS
  

--------------------------------------------------------------------------------
 LBFGS: improving iteration         2 with quad minimization (lambda=  3.507228)
--------------------------------------------------------------------------------
 
+---------------- MEMORY AND SCRATCH DISK ESTIMATES PER PROCESS --------------+
|                                                     Memory          Disk    |
| Model and support data                              168.5 MB         0.0 MB |
| Electronic energy minimisation requirements          37.0 MB         0.0 MB |
| Geometry minimisation requirements                   47.5 MB         0.0 MB |
|                                               ----------------------------- |
| Approx. total storage required per process          253.0 MB         0.0 MB |
|                                                                             |
| Requirements will fluctuate during execution and may exceed these estimates |
+-----------------------------------------------------------------------------+
 

                           -------------------------------
                                      Unit Cell
                           -------------------------------
        Real Lattice(A)              Reciprocal Lattice(1/A)
     2.3972527     1.3840534     4.3637792        1.310497023   0.756615993   0.479950019
    -2.3972531     1.3840536     4.3637794       -1.310496940   0.756615917   0.479949910
    -0.0000001    -2.7681097     4.3637798       -0.000000024  -1.513231724   0.479949497

                       Lattice parameters(A)       Cell Angles
                    a =      5.167687          alpha =   55.277162
                    b =      5.167688          beta  =   55.277162
                    c =      5.167689          gamma =   55.277174

                Current cell volume =            86.872245 A**3
                            density =             2.347384 amu/A**3
                                    =             3.897924 g/cm^3

                           -------------------------------
                                     Cell Contents
                           -------------------------------

            xxxxxxxxxxxxxxxxxxxxxxxxxxxxxxxxxxxxxxxxxxxxxxxxxxxxxxxxxxxxxxxxx
            x  Element         Atom        Fractional coordinates of atoms  x
            x                 Number           u          v          w      x
            x---------------------------------------------------------------x
            x  O                 1         0.556379   0.943621   0.250000   x
            x  O                 2         0.943621   0.250000   0.556379   x
            x  O                 3         0.250000   0.556379   0.943620   x
            x  O                 4         0.056379   0.750000   0.443621   x
            x  O                 5         0.750000   0.443621   0.056379   x
            x  O                 6         0.443621   0.056380   0.750000   x
            x  Al                1         0.147904   0.147905   0.147904   x
            x  Al                2         0.647904   0.647904   0.647904   x
            x  Al                3         0.852096   0.852096   0.852095   x
            x  Al                4         0.352096   0.352096   0.352095   x
            xxxxxxxxxxxxxxxxxxxxxxxxxxxxxxxxxxxxxxxxxxxxxxxxxxxxxxxxxxxxxxxxx


------------------------------------------------------------------------ <-- SCF
SCF loop      Energy           Fermi           Energy gain       Timer   <-- SCF
                               energy          per atom          (sec)   <-- SCF
------------------------------------------------------------------------ <-- SCF
Initial  -3.07421318E+003  0.00000000E+000                       168.80  <-- SCF
      1  -3.09129657E+003  4.56123894E+000   1.70833902E+000     171.98  <-- SCF
      2  -3.09143095E+003  4.56130758E+000   1.34370913E-002     175.49  <-- SCF
      3  -3.08834267E+003  6.45411491E+000  -3.08827152E-001     178.67  <-- SCF
      4  -3.08700487E+003  5.34177040E+000  -1.33780407E-001     181.84  <-- SCF
      5  -3.08700793E+003  5.35334993E+000   3.06085069E-004     185.20  <-- SCF
      6  -3.08700436E+003  5.39866751E+000  -3.56632947E-004     188.46  <-- SCF
      7  -3.08700439E+003  5.40137489E+000   2.84984723E-006     191.38  <-- SCF
      8  -3.08700439E+003  5.39987425E+000  -1.54958558E-007     193.68  <-- SCF
------------------------------------------------------------------------ <-- SCF
 
Final energy, E             =  -3087.004391346     eV
Final free energy (E-TS)    =  -3087.004391346     eV
(energies not corrected for finite basis set)
 
NB est. 0K energy (E-0.5TS)      =  -3087.004391346     eV
 

 ************************************** Forces **************************************
 *                                                                                  *
 *                           Cartesian components (eV/A)                            *
 * -------------------------------------------------------------------------------- *
 *                         x                    y                    z              *
 *                                                                                  *
 * O               1      0.01708             -0.00001             -0.00001         *
 * O               2     -0.00857             -0.01481             -0.00001         *
 * O               3     -0.00854              0.01479             -0.00000         *
 * O               4      0.00857              0.01480              0.00001         *
 * O               5      0.00854             -0.01479              0.00000         *
 * O               6     -0.01709              0.00001              0.00001         *
 * Al              1      0.00002              0.00000              0.00463         *
 * Al              2     -0.00001              0.00002              0.00466         *
 * Al              3     -0.00000             -0.00001             -0.00466         *
 * Al              4      0.00001             -0.00001             -0.00463         *
 *                                                                                  *
 ************************************************************************************

 ***************** Stress Tensor *****************
 *                                               *
 *          Cartesian components (GPa)           *
 * --------------------------------------------- *
 *             x             y             z     *
 *                                               *
 *  x      0.027407     -0.000026     -0.000028  *
 *  y     -0.000026      0.027334     -0.000078  *
 *  z     -0.000028     -0.000078     -0.024126  *
 *                                               *
 *  Pressure:   -0.0102                          *
 *                                               *
 *************************************************
  
 +------------+-------------+-------------+-----------------+ <-- min LBFGS
 |    Step    |   lambda    |   F.delta'  |    enthalpy     | <-- min LBFGS
 +------------+-------------+-------------+-----------------+ <-- min LBFGS
 |  previous  |    0.000000 |    0.007988 |    -3087.001693 | <-- min LBFGS
 | trial step |    1.000000 |    0.007991 |    -3087.001461 | <-- min LBFGS
 |  line step | -231.276547 |    0.623543 |    -3086.529972 | <-- min LBFGS
 |  quad step |    3.507228 |    0.001745 |    -3087.000408 | <-- min LBFGS
 +------------+-------------+-------------+-----------------+ <-- min LBFGS
  
 LBFGS: finished iteration     2 with enthalpy= -3.08700041E+003 eV
  
 +-----------+-----------------+-----------------+------------+-----+ <-- LBFGS
 | Parameter |      value      |    tolerance    |    units   | OK? | <-- LBFGS
 +-----------+-----------------+-----------------+------------+-----+ <-- LBFGS
 |  dE/ion   |   1.285747E-004 |   1.000000E-005 |         eV | No  | <-- LBFGS
 |  |F|max   |   1.711396E-002 |   1.000000E-002 |       eV/A | No  | <-- LBFGS
 |  |dR|max  |   3.171995E-004 |   1.000000E-003 |          A | Yes | <-- LBFGS
 |   Smax    |   2.740725E-002 |   1.000000E-001 |        GPa | Yes | <-- LBFGS
 +-----------+-----------------+-----------------+------------+-----+ <-- LBFGS
  

================================================================================
 Starting LBFGS iteration          3 ...
================================================================================
  
 +------------+-------------+-------------+-----------------+ <-- min LBFGS
 |    Step    |   lambda    |   F.delta'  |    enthalpy     | <-- min LBFGS
 +------------+-------------+-------------+-----------------+ <-- min LBFGS
 |  previous  |    0.000000 |    0.003023 |    -3087.000408 | <-- min LBFGS
 +------------+-------------+-------------+-----------------+ <-- min LBFGS
  

--------------------------------------------------------------------------------
 LBFGS: starting iteration         3 with trial guess (lambda=  1.000000)
--------------------------------------------------------------------------------

                           -------------------------------
                                      Unit Cell
                           -------------------------------
        Real Lattice(A)              Reciprocal Lattice(1/A)
     2.3971390     1.3839879     4.3648626        1.310559179   0.756651851   0.479830848
    -2.3971393     1.3839881     4.3648627       -1.310559116   0.756651781   0.479830788
    -0.0000000    -2.7679783     4.3648631       -0.000000030  -1.513303482   0.479830407

                       Lattice parameters(A)       Cell Angles
                    a =      5.168532          alpha =   55.264513
                    b =      5.168532          beta  =   55.264512
                    c =      5.168533          gamma =   55.264523

                Current cell volume =            86.885572 A**3
                            density =             2.347024 amu/A**3
                                    =             3.897326 g/cm^3

                           -------------------------------
                                     Cell Contents
                           -------------------------------

            xxxxxxxxxxxxxxxxxxxxxxxxxxxxxxxxxxxxxxxxxxxxxxxxxxxxxxxxxxxxxxxxx
            x  Element         Atom        Fractional coordinates of atoms  x
            x                 Number           u          v          w      x
            x---------------------------------------------------------------x
            x  O                 1         0.556418   0.943582   0.250000   x
            x  O                 2         0.943582   0.250000   0.556418   x
            x  O                 3         0.250000   0.556418   0.943582   x
            x  O                 4         0.056418   0.750000   0.443582   x
            x  O                 5         0.750000   0.443582   0.056418   x
            x  O                 6         0.443582   0.056418   0.750000   x
            x  Al                1         0.147906   0.147906   0.147905   x
            x  Al                2         0.647906   0.647905   0.647905   x
            x  Al                3         0.852095   0.852095   0.852094   x
            x  Al                4         0.352095   0.352095   0.352094   x
            xxxxxxxxxxxxxxxxxxxxxxxxxxxxxxxxxxxxxxxxxxxxxxxxxxxxxxxxxxxxxxxxx


------------------------------------------------------------------------ <-- SCF
SCF loop      Energy           Fermi           Energy gain       Timer   <-- SCF
                               energy          per atom          (sec)   <-- SCF
------------------------------------------------------------------------ <-- SCF
Initial  -3.08699998E+003  0.00000000E+000                       205.03  <-- SCF
      1  -3.08700453E+003  5.39393674E+000   4.55357215E-004     207.78  <-- SCF
      2  -3.08700454E+003  5.39393648E+000   1.00523442E-006     209.97  <-- SCF
      3  -3.08700441E+003  5.40146031E+000  -1.33664560E-005     212.98  <-- SCF
      4  -3.08700439E+003  5.39682583E+000  -1.75304361E-006     215.05  <-- SCF
      5  -3.08700439E+003  5.39683705E+000   6.71392705E-008     217.08  <-- SCF
------------------------------------------------------------------------ <-- SCF
 
Final energy, E             =  -3087.004392741     eV
Final free energy (E-TS)    =  -3087.004392741     eV
(energies not corrected for finite basis set)
 
NB est. 0K energy (E-0.5TS)      =  -3087.004392741     eV
 

 ************************************** Forces **************************************
 *                                                                                  *
 *                           Cartesian components (eV/A)                            *
 * -------------------------------------------------------------------------------- *
 *                         x                    y                    z              *
 *                                                                                  *
 * O               1      0.01147              0.00000              0.00001         *
 * O               2     -0.00574             -0.00995             -0.00000         *
 * O               3     -0.00574              0.00993              0.00000         *
 * O               4      0.00573              0.00995              0.00000         *
 * O               5      0.00573             -0.00993             -0.00001         *
 * O               6     -0.01146             -0.00000             -0.00000         *
 * Al              1      0.00001             -0.00001              0.00677         *
 * Al              2     -0.00000              0.00002              0.00679         *
 * Al              3     -0.00000             -0.00000             -0.00679         *
 * Al              4      0.00000             -0.00001             -0.00677         *
 *                                                                                  *
 ************************************************************************************

 ***************** Stress Tensor *****************
 *                                               *
 *          Cartesian components (GPa)           *
 * --------------------------------------------- *
 *             x             y             z     *
 *                                               *
 *  x     -0.051138     -0.000020     -0.000017  *
 *  y     -0.000020     -0.051194     -0.000073  *
 *  z     -0.000017     -0.000073     -0.001453  *
 *                                               *
 *  Pressure:    0.0346                          *
 *                                               *
 *************************************************
  
 +------------+-------------+-------------+-----------------+ <-- min LBFGS
 |    Step    |   lambda    |   F.delta'  |    enthalpy     | <-- min LBFGS
 +------------+-------------+-------------+-----------------+ <-- min LBFGS
 |  previous  |    0.000000 |    0.003023 |    -3087.000408 | <-- min LBFGS
 | trial step |    1.000000 |    0.001354 |    -3087.000187 | <-- min LBFGS
 +------------+-------------+-------------+-----------------+ <-- min LBFGS
  

--------------------------------------------------------------------------------
 LBFGS: improving iteration         3 with line minimization (lambda=  1.811734)
--------------------------------------------------------------------------------

                           -------------------------------
                                      Unit Cell
                           -------------------------------
        Real Lattice(A)              Reciprocal Lattice(1/A)
     2.3970468     1.3839348     4.3657421        1.310609637   0.756680960   0.479734156
    -2.3970469     1.3839349     4.3657422       -1.310609592   0.756680895   0.479734136
     0.0000000    -2.7678717     4.3657425       -0.000000034  -1.513361734   0.479733782

                       Lattice parameters(A)       Cell Angles
                    a =      5.169218          alpha =   55.254248
                    b =      5.169218          beta  =   55.254246
                    c =      5.169219          gamma =   55.254256

                Current cell volume =            86.896387 A**3
                            density =             2.346732 amu/A**3
                                    =             3.896841 g/cm^3

                           -------------------------------
                                     Cell Contents
                           -------------------------------

            xxxxxxxxxxxxxxxxxxxxxxxxxxxxxxxxxxxxxxxxxxxxxxxxxxxxxxxxxxxxxxxxx
            x  Element         Atom        Fractional coordinates of atoms  x
            x                 Number           u          v          w      x
            x---------------------------------------------------------------x
            x  O                 1         0.556450   0.943550   0.250000   x
            x  O                 2         0.943550   0.250000   0.556449   x
            x  O                 3         0.250000   0.556450   0.943550   x
            x  O                 4         0.056450   0.750000   0.443550   x
            x  O                 5         0.750000   0.443550   0.056450   x
            x  O                 6         0.443550   0.056450   0.750000   x
            x  Al                1         0.147906   0.147907   0.147906   x
            x  Al                2         0.647906   0.647906   0.647906   x
            x  Al                3         0.852094   0.852094   0.852093   x
            x  Al                4         0.352094   0.352094   0.352093   x
            xxxxxxxxxxxxxxxxxxxxxxxxxxxxxxxxxxxxxxxxxxxxxxxxxxxxxxxxxxxxxxxxx


------------------------------------------------------------------------ <-- SCF
SCF loop      Energy           Fermi           Energy gain       Timer   <-- SCF
                               energy          per atom          (sec)   <-- SCF
------------------------------------------------------------------------ <-- SCF
Initial  -3.08700181E+003  0.00000000E+000                       228.51  <-- SCF
      1  -3.08700272E+003  5.39468029E+000   9.06754649E-005     231.21  <-- SCF
      2  -3.08700273E+003  5.39468028E+000   5.01621987E-007     233.24  <-- SCF
      3  -3.08700264E+003  5.39826132E+000  -8.40949869E-006     235.80  <-- SCF
      4  -3.08700264E+003  5.39602199E+000  -1.10872039E-007     237.81  <-- SCF
------------------------------------------------------------------------ <-- SCF
 
Final energy, E             =  -3087.002639890     eV
Final free energy (E-TS)    =  -3087.002639890     eV
(energies not corrected for finite basis set)
 
NB est. 0K energy (E-0.5TS)      =  -3087.002639890     eV
 

 ************************************** Forces **************************************
 *                                                                                  *
 *                           Cartesian components (eV/A)                            *
 * -------------------------------------------------------------------------------- *
 *                         x                    y                    z              *
 *                                                                                  *
 * O               1      0.02459              0.00000             -0.00000         *
 * O               2     -0.01231             -0.02130             -0.00001         *
 * O               3     -0.01230              0.02130             -0.00001         *
 * O               4      0.01231              0.02130              0.00001         *
 * O               5      0.01230             -0.02130              0.00000         *
 * O               6     -0.02459             -0.00000              0.00001         *
 * Al              1      0.00001             -0.00001              0.00809         *
 * Al              2     -0.00001              0.00002              0.00811         *
 * Al              3     -0.00001             -0.00000             -0.00811         *
 * Al              4      0.00000             -0.00001             -0.00809         *
 *                                                                                  *
 ************************************************************************************

 ***************** Stress Tensor *****************
 *                                               *
 *          Cartesian components (GPa)           *
 * --------------------------------------------- *
 *             x             y             z     *
 *                                               *
 *  x     -0.066156     -0.000027     -0.000008  *
 *  y     -0.000027     -0.066212     -0.000058  *
 *  z     -0.000008     -0.000058      0.085023  *
 *                                               *
 *  Pressure:    0.0158                          *
 *                                               *
 *************************************************
  
 +------------+-------------+-------------+-----------------+ <-- min LBFGS
 |    Step    |   lambda    |   F.delta'  |    enthalpy     | <-- min LBFGS
 +------------+-------------+-------------+-----------------+ <-- min LBFGS
 |  previous  |    0.000000 |    0.003023 |    -3087.000408 | <-- min LBFGS
 | trial step |    1.000000 |    0.001354 |    -3087.000187 | <-- min LBFGS
 |  line step |    1.811734 |    0.001648 |    -3087.000127 | <-- min LBFGS
 +------------+-------------+-------------+-----------------+ <-- min LBFGS
  

--------------------------------------------------------------------------------
 LBFGS: improving iteration         3 with quad minimization (lambda= -2.738583)
--------------------------------------------------------------------------------

                           -------------------------------
                                      Unit Cell
                           -------------------------------
        Real Lattice(A)              Reciprocal Lattice(1/A)
     2.3975638     1.3842328     4.3608120        1.310326836   0.756517811   0.480276682
    -2.3975647     1.3842330     4.3608124       -1.310326693   0.756517720   0.480276437
    -0.0000003    -2.7684694     4.3608130       -0.000000008  -1.513035246   0.480275937

                       Lattice parameters(A)       Cell Angles
                    a =      5.165375          alpha =   55.311823
                    b =      5.165375          beta  =   55.311824
                    c =      5.165376          gamma =   55.311841

[...]
 |  |F|max   |   8.415859E-003 |   1.000000E-002 |       eV/A | Yes | <-- LBFGS
 |  |dR|max  |   2.067249E-004 |   1.000000E-003 |          A | Yes | <-- LBFGS
 |   Smax    |   1.103617E-001 |   1.000000E-001 |        GPa | No  | <-- LBFGS
 +-----------+-----------------+-----------------+------------+-----+ <-- LBFGS
  

================================================================================
 Starting LBFGS iteration          5 ...
================================================================================

Writing analysis data to al2o3_xc-PBESOL_c-0600_k-5x5x5_geom.castep_bin

Writing model to al2o3_xc-PBESOL_c-0600_k-5x5x5_geom.check
  
 +------------+-------------+-------------+-----------------+ <-- min LBFGS
 |    Step    |   lambda    |   F.delta'  |    enthalpy     | <-- min LBFGS
 +------------+-------------+-------------+-----------------+ <-- min LBFGS
 |  previous  |    0.000000 |    0.003260 |    -3086.999371 | <-- min LBFGS
 +------------+-------------+-------------+-----------------+ <-- min LBFGS
  

--------------------------------------------------------------------------------
 LBFGS: starting iteration         5 with trial guess (lambda=  1.000000)
--------------------------------------------------------------------------------

                           -------------------------------
                                      Unit Cell
                           -------------------------------
        Real Lattice(A)              Reciprocal Lattice(1/A)
     2.3975951     1.3842518     4.3649904        1.310310003   0.756507839   0.479816654
    -2.3975947     1.3842518     4.3649901       -1.310310057   0.756507851   0.479816782
     0.0000002    -2.7685043     4.3649902       -0.000000017  -1.513015723   0.479816596

                       Lattice parameters(A)       Cell Angles
                    a =      5.168922          alpha =   55.271404
                    b =      5.168922          beta  =   55.271402
                    c =      5.168922          gamma =   55.271404

                Current cell volume =            86.921159 A**3
                            density =             2.346064 amu/A**3
                                    =             3.895730 g/cm^3

                           -------------------------------
                                     Cell Contents
                           -------------------------------

            xxxxxxxxxxxxxxxxxxxxxxxxxxxxxxxxxxxxxxxxxxxxxxxxxxxxxxxxxxxxxxxxx
            x  Element         Atom        Fractional coordinates of atoms  x
            x                 Number           u          v          w      x
            x---------------------------------------------------------------x
            x  O                 1         0.556451   0.943549   0.250000   x
            x  O                 2         0.943549   0.250000   0.556451   x
            x  O                 3         0.250000   0.556451   0.943549   x
            x  O                 4         0.056451   0.750000   0.443549   x
            x  O                 5         0.750000   0.443549   0.056451   x
            x  O                 6         0.443549   0.056451   0.750000   x
            x  Al                1         0.147920   0.147920   0.147920   x
            x  Al                2         0.647920   0.647920   0.647920   x
            x  Al                3         0.852080   0.852080   0.852080   x
            x  Al                4         0.352080   0.352080   0.352080   x
            xxxxxxxxxxxxxxxxxxxxxxxxxxxxxxxxxxxxxxxxxxxxxxxxxxxxxxxxxxxxxxxxx


------------------------------------------------------------------------ <-- SCF
SCF loop      Energy           Fermi           Energy gain       Timer   <-- SCF
                               energy          per atom          (sec)   <-- SCF
------------------------------------------------------------------------ <-- SCF
Initial  -3.08700338E+003  0.00000000E+000                       239.43  <-- SCF
      1  -3.08700344E+003  5.39610383E+000   5.96070507E-006     241.16  <-- SCF
      2  -3.08700345E+003  5.39610372E+000   3.26543001E-007     243.18  <-- SCF
      3  -3.08700344E+003  5.39364796E+000  -4.13787812E-007     245.07  <-- SCF
      4  -3.08700344E+003  5.39413204E+000  -1.24690465E-008     246.97  <-- SCF
------------------------------------------------------------------------ <-- SCF
 
Final energy, E             =  -3087.003443250     eV
Final free energy (E-TS)    =  -3087.003443250     eV
(energies not corrected for finite basis set)
 
NB est. 0K energy (E-0.5TS)      =  -3087.003443250     eV
 

 ************************************** Forces **************************************
 *                                                                                  *
 *                           Cartesian components (eV/A)                            *
 * -------------------------------------------------------------------------------- *
 *                         x                    y                    z              *
 *                                                                                  *
 * O               1      0.00354             -0.00000              0.00000         *
 * O               2     -0.00177             -0.00307             -0.00000         *
 * O               3     -0.00177              0.00307             -0.00000         *
 * O               4      0.00176              0.00306             -0.00000         *
 * O               5      0.00178             -0.00307              0.00000         *
 * O               6     -0.00354              0.00001             -0.00000         *
 * Al              1      0.00000              0.00000              0.00277         *
 * Al              2     -0.00000              0.00000              0.00277         *
 * Al              3     -0.00000             -0.00000             -0.00277         *
 * Al              4     -0.00000             -0.00000             -0.00277         *
 *                                                                                  *
 ************************************************************************************

 ***************** Stress Tensor *****************
 *                                               *
 *          Cartesian components (GPa)           *
 * --------------------------------------------- *
 *             x             y             z     *
 *                                               *
 *  x      0.046940      0.000008      0.000022  *
 *  y      0.000008      0.046928     -0.000008  *
 *  z      0.000022     -0.000008      0.038973  *
 *                                               *
 *  Pressure:   -0.0443                          *
 *                                               *
 *************************************************
  
 +------------+-------------+-------------+-----------------+ <-- min LBFGS
 |    Step    |   lambda    |   F.delta'  |    enthalpy     | <-- min LBFGS
 +------------+-------------+-------------+-----------------+ <-- min LBFGS
 |  previous  |    0.000000 |    0.003260 |    -3086.999371 | <-- min LBFGS
 | trial step |    1.000000 |    0.001346 |    -3086.999470 | <-- min LBFGS
 +------------+-------------+-------------+-----------------+ <-- min LBFGS
  
 LBFGS: finished iteration     5 with enthalpy= -3.08699947E+003 eV
  
 +-----------+-----------------+-----------------+------------+-----+ <-- LBFGS
 | Parameter |      value      |    tolerance    |    units   | OK? | <-- LBFGS
 +-----------+-----------------+-----------------+------------+-----+ <-- LBFGS
 |  dE/ion   |   9.921503E-006 |   1.000000E-005 |         eV | Yes | <-- LBFGS
 |  |F|max   |   3.542604E-003 |   1.000000E-002 |       eV/A | Yes | <-- LBFGS
 |  |dR|max  |   5.485544E-005 |   1.000000E-003 |          A | Yes | <-- LBFGS
 |   Smax    |   4.694020E-002 |   1.000000E-001 |        GPa | Yes | <-- LBFGS
 +-----------+-----------------+-----------------+------------+-----+ <-- LBFGS
  
 LBFGS: Geometry optimization completed successfully.

================================================================================
 LBFGS: Final Configuration:
================================================================================

                           -------------------------------
                                      Unit Cell
                           -------------------------------
        Real Lattice(A)              Reciprocal Lattice(1/A)
     2.3975951     1.3842518     4.3649904        1.310310003   0.756507839   0.479816654
    -2.3975947     1.3842518     4.3649901       -1.310310057   0.756507851   0.479816782
     0.0000002    -2.7685043     4.3649902       -0.000000017  -1.513015723   0.479816596

                       Lattice parameters(A)       Cell Angles
                    a =      5.168922          alpha =   55.271404
                    b =      5.168922          beta  =   55.271402
                    c =      5.168922          gamma =   55.271404

                Current cell volume =            86.921159 A**3
                            density =             2.346064 amu/A**3
                                    =             3.895730 g/cm^3

                           -------------------------------
                                     Cell Contents
                           -------------------------------

            xxxxxxxxxxxxxxxxxxxxxxxxxxxxxxxxxxxxxxxxxxxxxxxxxxxxxxxxxxxxxxxxx
            x  Element         Atom        Fractional coordinates of atoms  x
            x                 Number           u          v          w      x
            x---------------------------------------------------------------x
            x  O                 1         0.556451   0.943549   0.250000   x
            x  O                 2         0.943549   0.250000   0.556451   x
            x  O                 3         0.250000   0.556451   0.943549   x
            x  O                 4         0.056451   0.750000   0.443549   x
            x  O                 5         0.750000   0.443549   0.056451   x
            x  O                 6         0.443549   0.056451   0.750000   x
            x  Al                1         0.147920   0.147920   0.147920   x
            x  Al                2         0.647920   0.647920   0.647920   x
            x  Al                3         0.852080   0.852080   0.852080   x
            x  Al                4         0.352080   0.352080   0.352080   x
            xxxxxxxxxxxxxxxxxxxxxxxxxxxxxxxxxxxxxxxxxxxxxxxxxxxxxxxxxxxxxxxxx


 LBFGS: Final Enthalpy     = -3.08699947E+003 eV
 LBFGS: Final <frequency>  =    1397.06468 cm-1
 LBFGS: Final bulk modulus =     349.20722 GPa

 ************************************** Forces **************************************
 *                                                                                  *
 *                           Cartesian components (eV/A)                            *
 * -------------------------------------------------------------------------------- *
 *                         x                    y                    z              *
 *                                                                                  *
 * O               1      0.00354             -0.00000              0.00000         *
 * O               2     -0.00177             -0.00307             -0.00000         *
 * O               3     -0.00177              0.00307             -0.00000         *
 * O               4      0.00176              0.00306             -0.00000         *
 * O               5      0.00178             -0.00307              0.00000         *
 * O               6     -0.00354              0.00001             -0.00000         *
 * Al              1      0.00000              0.00000              0.00277         *
 * Al              2     -0.00000              0.00000              0.00277         *
 * Al              3     -0.00000             -0.00000             -0.00277         *
 * Al              4     -0.00000             -0.00000             -0.00277         *
 *                                                                                  *
 ************************************************************************************

 ***************** Stress Tensor *****************
 *                                               *
 *          Cartesian components (GPa)           *
 * --------------------------------------------- *
 *             x             y             z     *
 *                                               *
 *  x      0.046940      0.000008      0.000022  *
 *  y      0.000008      0.046928     -0.000008  *
 *  z      0.000022     -0.000008      0.038973  *
 *                                               *
 *  Pressure:   -0.0443                          *
 *                                               *
 *************************************************

 Pseudo atomic calculation performed for O 2s2 2p4

 Converged in 21 iterations to a total energy of -430.8269 eV

 Pseudo atomic calculation performed for Al 3s2 3p1

 Converged in 11 iterations to a total energy of -105.9168 eV
Charge spilling parameter for spin component 1 = 0.77%

            Orbital Populations       
     Ion    Atom   Orbital             Charge
  -------------------------------------------
      O     1      S                    1.836
      O     1      Px                   1.718
      O     1      Py                   1.752
      O     1      Pz                   1.741
      O     2      S                    1.836
      O     2      Px                   1.744
      O     2      Py                   1.726
      O     2      Pz                   1.741
      O     3      S                    1.836
      O     3      Px                   1.744
      O     3      Py                   1.727
      O     3      Pz                   1.741
      O     4      S                    1.836
      O     4      Px                   1.744
      O     4      Py                   1.727
      O     4      Pz                   1.741
      O     5      S                    1.836
      O     5      Px                   1.744
      O     5      Py                   1.727
      O     5      Pz                   1.741
      O     6      S                    1.836
      O     6      Px                   1.718
      O     6      Py                   1.752
      O     6      Pz                   1.741
     Al     1      S                    0.523
     Al     1      Px                   0.304
     Al     1      Py                   0.304
     Al     1      Pz                   0.297
     Al     2      S                    0.523
     Al     2      Px                   0.304
     Al     2      Py                   0.304
     Al     2      Pz                   0.297
     Al     3      S                    0.523
     Al     3      Px                   0.304
     Al     3      Py                   0.304
     Al     3      Pz                   0.297
     Al     4      S                    0.523
     Al     4      Px                   0.304
     Al     4      Py                   0.304
     Al     4      Pz                   0.297
  -------------------------------------------
                           Total:      48.000
  -------------------------------------------

     Atomic Populations (Mulliken)
     -----------------------------
Species          Ion     s      p      d      f     Total  Charge (e)
=====================================================================
  O               1     1.84   5.21   0.00   0.00   7.05    -1.05
  O               2     1.84   5.21   0.00   0.00   7.05    -1.05
  O               3     1.84   5.21   0.00   0.00   7.05    -1.05
  O               4     1.84   5.21   0.00   0.00   7.05    -1.05
  O               5     1.84   5.21   0.00   0.00   7.05    -1.05
  O               6     1.84   5.21   0.00   0.00   7.05    -1.05
  Al              1     0.52   0.91   0.00   0.00   1.43     1.57
  Al              2     0.52   0.91   0.00   0.00   1.43     1.57
  Al              3     0.52   0.91   0.00   0.00   1.43     1.57
  Al              4     0.52   0.91   0.00   0.00   1.43     1.57
=====================================================================

                 Bond                   Population      Length (A)
======================================================================
               O 2 -- Al 3                   0.36        1.86891
               O 4 -- Al 1                   0.36        1.86891
               O 5 -- Al 4                   0.36        1.86891
               O 2 -- Al 2                   0.36        1.86891
               O 6 -- Al 4                   0.36        1.86891
               O 4 -- Al 4                   0.36        1.86891
               O 6 -- Al 1                   0.36        1.86891
               O 3 -- Al 2                   0.36        1.86891
               O 1 -- Al 2                   0.36        1.86891
               O 5 -- Al 1                   0.36        1.86891
               O 3 -- Al 3                   0.36        1.86891
               O 1 -- Al 3                   0.36        1.86891
               O 1 -- Al 4                   0.26        1.98652
               O 3 -- Al 1                   0.26        1.98652
               O 5 -- Al 3                   0.26        1.98652
               O 6 -- Al 2                   0.26        1.98652
               O 4 -- Al 3                   0.26        1.98652
               O 2 -- Al 1                   0.26        1.98652
               O 3 -- Al 4                   0.26        1.98652
               O 5 -- Al 2                   0.26        1.98652
               O 2 -- Al 4                   0.26        1.98652
               O 1 -- Al 1                   0.26        1.98652
               O 6 -- Al 3                   0.26        1.98652
               O 4 -- Al 2                   0.26        1.98652
               O 1 -- O 3                   -0.16        2.54523
               O 2 -- O 3                   -0.16        2.54523
               O 5 -- O 6                   -0.16        2.54523
               O 1 -- O 2                   -0.16        2.54523
               O 4 -- O 5                   -0.16        2.54523
               O 4 -- O 6                   -0.16        2.54523
               O 1 -- O 6                   -0.16        2.64056
               O 2 -- O 4                   -0.16        2.64056
               O 3 -- O 5                   -0.16        2.64056
              Al 1 -- Al 4                  -0.50        2.67348
              Al 2 -- Al 3                  -0.50        2.67348
               O 3 -- O 6                   -0.10        2.74605
               O 1 -- O 5                   -0.10        2.74605
               O 1 -- O 4                   -0.10        2.74605
               O 3 -- O 4                   -0.10        2.74605
               O 2 -- O 5                   -0.10        2.74605
               O 2 -- O 6                   -0.10        2.74605
              Al 1 -- Al 3                  -0.63        2.81170
              Al 2 -- Al 4                  -0.63        2.81170
======================================================================


Writing analysis data to al2o3_xc-PBESOL_c-0600_k-5x5x5_geom.castep_bin

Writing model to al2o3_xc-PBESOL_c-0600_k-5x5x5_geom.check
 
 A BibTeX formatted list of references used in this run has been written to 
 al2o3_xc-PBESOL_c-0600_k-5x5x5_geom.bib
 
Initialisation time =      7.09 s
Calculation time    =    252.70 s
Finalisation time   =      1.06 s
Total time          =    260.85 s
Peak Memory Use     = 616372 kB
  
Overall parallel efficiency rating: Excellent (94%)                             
  
Data was distributed by:-
k-point (9-way); efficiency rating: Excellent (95%)                             
  
Parallel notes:
1) Calculation only took 259.8 s, so efficiency estimates may be inaccurate.    
