 +-------------------------------------------------+
 |                                                 |
 |      CCC   AA    SSS  TTTTT  EEEEE  PPPP        |
 |     C     A  A  S       T    E      P   P       |
 |     C     AAAA   SS     T    EEE    PPPP        |
 |     C     A  A     S    T    E      P           |
 |      CCC  A  A  SSS     T    EEEEE  P           |
 |                                                 |
 +-------------------------------------------------+
 |                                                 |
 | Welcome to Academic Release CASTEP version 19.11|          
 | Ab Initio Total Energy Program                  |
 |                                                 |
 | Authors:                                        |
 | M. Segall, M. Probert, C. Pickard, P. Hasnip,   |
 | S. Clark, K. Refson, J. R. Yates, M. Payne      |
 |                                                 |
 | Contributors:                                   |
 | P. Lindan, P. Haynes, J. White, V. Milman,      |
 | N. Govind, M. Gibson, P. Tulip, V. Cocula,      |
 | B. Montanari, D. Quigley, M. Glover,            |
 | L. Bernasconi, A. Perlov, M. Plummer,           |
 | E. McNellis, J. Meyer, J. Gale, D. Jochym       |
 | J. Aarons, B. Walker, R. Gillen, D. Jones       |
 | T. Green, I. J. Bush, C. J. Armstrong,          |
 | E. J. Higgins, E. L. Brown, M. S. McFly,        |
 | J. Wilkins, B-C. Shih, P. J. P. Byrne           |
 |                                                 |
 | Copyright (c) 2000 - 2018                       |
 |                                                 |
 |     Distributed under the terms of an           |
 |     Agreement between the United Kingdom        |
 |     Car-Parrinello (UKCP) Consortium,           |
 |     Daresbury Laboratory and Accelrys, Inc.     |
 |                                                 |
 | Please cite                                     |
 |                                                 |
 |     "First principles methods using CASTEP"     |
 |                                                 |
 |         Zeitschrift fuer Kristallographie       |
 |           220(5-6) pp. 567-570 (2005)           |
 |                                                 |
 | S. J. Clark, M. D. Segall, C. J. Pickard,       |
 | P. J. Hasnip, M. J. Probert, K. Refson,         |
 | M. C. Payne                                     |
 |                                                 |
 |       in all publications arising from          |
 |              your use of CASTEP                 |
 |                                                 |
 +-------------------------------------------------+
 |                                                 |
 |              http://www.castep.org              |
 |                                                 |
 +-------------------------------------------------+



 Compiled for linux_x86_64_gfortran7.0 on Fri, 31 Jan 2020 20:20:28 +0100
 from code version e1fe0d666396+ Castep191_branch Thu, 24 Oct 2019 13:54:03 +0100
 Compiler: GNU Fortran 7.4.0; Optimisation: fast
 MATHLIBS: default (LAPACK version 3.7.1)
 FFT Lib : default
 Fundamental constants values: CODATA 2014

 Run started: Wed, 10 Nov 2021 13:25:37 +0100

 Atomic calculation performed for O: 1s2 2s2 2p4

 Converged in 57 iterations to an ae energy of -2034.019 eV

   ============================================================                
   | Pseudopotential Report - Date of generation 10-11-2021   |                
   ------------------------------------------------------------                
   | Element: O Ionic charge:  6.00 Level of theory: PBESOL   |                
   | Atomic Solver: Koelling-Harmon                           |                
   |                                                          |                
   |               Reference Electronic Structure             |                
   |         Orbital         Occupation         Energy        |                
   |            2s              2.000           -0.875        |                
   |            2p              4.000           -0.330        |                
   |                                                          |                
   |                 Pseudopotential Definition               |                
   |        Beta     l      e      Rc     scheme   norm       |                
   |          1      0   -0.875   1.100     qc      0         |                
   |          2      0    0.250   1.100     qc      0         |                
   |          3      1   -0.330   1.100     qc      0         |                
   |          4      1    0.250   1.100     qc      0         |                
   |         loc     2    0.000   1.100     pn      0         |                
   |                                                          |                
   | Augmentation charge Rinner = 0.769                       |                
   | Partial core correction Rc = 0.769                       |                
   ------------------------------------------------------------                
   | "2|1.1|17|20|23|20:21(qc=8)"                             |                
   ------------------------------------------------------------                
   |      Author: Chris J. Pickard, Cambridge University      |                
   ============================================================                

 Atomic calculation performed for Al: 1s2 2s2 2p6 3s2 3p1

 Converged in 55 iterations to an ae energy of -6590.489 eV

   ============================================================                
   | Pseudopotential Report - Date of generation 10-11-2021   |                
   ------------------------------------------------------------                
   | Element: Al Ionic charge:  3.00 Level of theory: PBESOL  |                
   | Atomic Solver: Koelling-Harmon                           |                
   |                                                          |                
   |               Reference Electronic Structure             |                
   |         Orbital         Occupation         Energy        |                
   |            3s              2.000           -0.284        |                
   |            3p              1.000           -0.099        |                
   |                                                          |                
   |                 Pseudopotential Definition               |                
   |        Beta     l      e      Rc     scheme   norm       |                
   |          1      0   -0.284   2.192     qc      0         |                
   |          2      0    0.250   2.192     qc      0         |                
   |          3      1   -0.099   2.192     qc      0         |                
   |          4      1    0.250   2.192     qc      0         |                
   |          5      2    0.000   2.000     qc      0         |                
   |          6      2    0.250   2.000     qc      0         |                
   |         loc     3    0.000   2.192     pn      0         |                
   |                                                          |                
   | Augmentation charge Rinner = 1.398                       |                
   | Partial core correction Rc = 1.398                       |                
   ------------------------------------------------------------                
   | "3|2.2|2.2|1.4|4|5|5|30:31:32U2U2"                       |                
   ------------------------------------------------------------                
   |      Author: Chris J. Pickard, Cambridge University      |                
   ============================================================                

 Pseudo atomic calculation performed for O 2s2 2p4

 Converged in 21 iterations to a total energy of -430.8269 eV

 Pseudo atomic calculation performed for Al 3s2 3p1

 Converged in 11 iterations to a total energy of -105.9168 eV
 Calculation parallelised over 9 processes.
 Data is distributed by G-vector(9-way)

 ************************************ Title ************************************
 

 ***************************** General Parameters ******************************
  
 output verbosity                               : normal  (1)
 write checkpoint data to                       : al2o3_xc-PBESOL_c-0600_k-1x1x1_geom.check
 type of calculation                            : geometry optimization
 stress calculation                             : off
 density difference calculation                 : off
 electron localisation func (ELF) calculation   : off
 Hirshfeld analysis                             : off
 unlimited duration calculation
 timing information                             : on
 memory usage estimate                          : on
 write extra output files                       : on
 write final potential to formatted file        : off
 write final density to formatted file          : off
 write structure in CIF formatted file          : on
 write structure in CELL formatted file         : on
 write BibTeX reference list                    : on
 write OTFG pseudopotential files               : on
 write electrostatic potential file             : on
 write bands file                               : on
 checkpoint writing                             : both castep_bin and check files
  
 output         length unit                     : A
 output           mass unit                     : amu
 output           time unit                     : ps
 output         charge unit                     : e
 output           spin unit                     : hbar/2
 output         energy unit                     : eV
 output          force unit                     : eV/A
 output       velocity unit                     : A/ps
 output       pressure unit                     : GPa
 output     inv_length unit                     : 1/A
 output      frequency unit                     : cm-1
 output force constant unit                     : eV/A**2
 output         volume unit                     : A**3
 output   IR intensity unit                     : (D/A)**2/amu
 output         dipole unit                     : D
 output         efield unit                     : eV/A/e
 output        entropy unit                     : J/mol/K
  
 wavefunctions paging                           : none
 random number generator seed                   : randomised (132537459)
 data distribution                              : optimal for this architecture
 optimization strategy                          : maximize speed(+++)

 *********************** Exchange-Correlation Parameters ***********************
  
 using functional                               : PBE for solids (2008)
 relativistic treatment                         : Koelling-Harmon
 DFT+D: Semi-empirical dispersion correction    : off

 ************************* Pseudopotential Parameters **************************
  
 pseudopotential representation                 : reciprocal space
 <beta|phi> representation                      : reciprocal space
 spin-orbit coupling                            : off

 **************************** Basis Set Parameters *****************************
  
 plane wave basis set cut-off                   :   600.0000   eV
 size of standard grid                          :     1.7500
 size of   fine   gmax                          :    21.9610   1/A
 finite basis set correction                    : automatic
 number of sample energies                      :          3
           sample  spacing                      :     5.0000   eV

 **************************** Electronic Parameters ****************************
  
 number of  electrons                           :  48.00    
 net charge of system                           :  0.000    
 treating system as non-spin-polarized
 number of bands                                :         29

 ********************* Electronic Minimization Parameters **********************
  
 Method: Treating system as metallic with density mixing treatment of electrons,
         and number of  SD  steps               :          1
         and number of  CG  steps               :          4
  
 total energy / atom convergence tol.           : 0.1000E-04   eV
 eigen-energy convergence tolerance             : 0.1000E-05   eV
 max force / atom convergence tol.              : ignored
 convergence tolerance window                   :          3   cycles
 max. number of SCF cycles                      :         30
 number of fixed-spin iterations                :         10
 smearing scheme                                : Gaussian
 smearing width                                 : 0.2000       eV
 Fermi energy convergence tolerance             : 0.2721E-13   eV
 periodic dipole correction                     : NONE

 ************************** Density Mixing Parameters **************************
  
 density-mixing scheme                          : Broyden
 max. length of mixing history                  :         20
 charge density mixing amplitude                : 0.8000    
 cut-off energy for mixing                      :  600.0       eV

 *********************** Population Analysis Parameters ************************
  
 Population analysis with cutoff                :  3.000       A
 Population analysis output                     : summary and pdos components

 ********************** Geometry Optimization Parameters ***********************
  
 optimization method                            : LBFGS
 max. no. of LBFGS updates                      : unbounded
 variable cell method                           : fixed basis quality
 max. number of steps                           :        150
 estimated bulk modulus                         :  500.0       GPa
 estimated <frequency>                          :  1668.       cm-1
 geom line minimiser                            : on
 with line minimiser tolerance                  :     0.4000
 total energy convergence tolerance             : 0.1000E-04   eV/atom
        max ionic |force| tolerance             : 0.1000E-01   eV/A
 max ionic |displacement| tolerance             : 0.1000E-02   A
   max |stress component| tolerance             : 0.1000       GPa
 convergence tolerance window                   :          2   steps
 backup results every                           :          5   steps
 write geom trajectory file                     : on

 *******************************************************************************
  

                           -------------------------------
                                      Unit Cell
                           -------------------------------
        Real Lattice(A)                      Reciprocal Lattice(1/A)
     2.3801000     1.3741510     4.3310000        1.319941454   0.762068577   0.483582396
    -2.3801000     1.3741510     4.3310000       -1.319941454   0.762068577   0.483582396
     0.0000000    -2.7483030     4.3310000       -0.000000000  -1.524137154   0.483582220

                       Lattice parameters(A)       Cell Angles
                    a =      5.129398          alpha =   55.292535
                    b =      5.129398          beta  =   55.292535
                    c =      5.129399          gamma =   55.292537

                       Current cell volume =            84.990269       A**3
                                   density =             2.399364   AMU/A**3
                                           =             3.984237     g/cm^3

                           -------------------------------
                                     Cell Contents
                           -------------------------------
                         Total number of ions in cell =   10
                      Total number of species in cell =    2
                        Max number of any one species =    6

            xxxxxxxxxxxxxxxxxxxxxxxxxxxxxxxxxxxxxxxxxxxxxxxxxxxxxxxxxxxx
            x  Element    Atom        Fractional coordinates of atoms  x
            x            Number           u          v          w      x
            x----------------------------------------------------------x
            x  O            1         0.556260   0.943740   0.250000   x 
            x  O            2         0.943740   0.250000   0.556260   x 
            x  O            3         0.250000   0.556260   0.943740   x 
            x  O            4         0.056260   0.750000   0.443740   x 
            x  O            5         0.750000   0.443740   0.056260   x 
            x  O            6         0.443740   0.056260   0.750000   x 
            x  Al           1         0.147900   0.147900   0.147900   x 
            x  Al           2         0.647900   0.647900   0.647900   x 
            x  Al           3         0.852100   0.852100   0.852100   x 
            x  Al           4         0.352100   0.352100   0.352100   x 
            xxxxxxxxxxxxxxxxxxxxxxxxxxxxxxxxxxxxxxxxxxxxxxxxxxxxxxxxxxxx


                         No user defined ionic velocities

                           -------------------------------
                                   Details of Species
                           -------------------------------

                               Mass of species in AMU
                                    O   15.9994000
                                    Al   26.9815400

                          Electric Quadrupole Moment (Barn)
                                    O   -0.0255800 Isotope 17
                                    Al    0.1466000 Isotope 27

                          Files used for pseudopotentials:
                                    O 2|1.1|17|20|23|20:21(qc=8)
                                    Al 3|2.2|2.2|1.4|4|5|5|30:31:32U2U2

                           -------------------------------
                              k-Points For BZ Sampling
                           -------------------------------
                       MP grid size for SCF calculation is  1  1  1
                            with an offset of   0.000  0.000  0.000
                       Number of kpoints used =             1

                           -------------------------------
                               Symmetry and Constraints
                           -------------------------------

                      Maximum deviation from symmetry =  0.00000         ANG

                      Number of symmetry operations   =           1
                      Number of ionic constraints     =           3
                      Point group of crystal =     1: C1, 1, 1
                      Space group of crystal =   167: R-3c, -R 3 2"c

             Set iprint > 1 for details on symmetry rotations/translations

                         Centre of mass is constrained
             Set iprint > 1 for details of linear ionic constraints

                         Number of cell constraints= 0
                         Cell constraints are:  1 2 3 4 5 6

                         External pressure/stress (GPa)
                          0.00000   0.00000   0.00000
                                    0.00000   0.00000
                                              0.00000
  
+---------------- MEMORY AND SCRATCH DISK ESTIMATES PER PROCESS --------------+
|                                                     Memory          Disk    |
| Baseline code, static data and system overhead      196.0 MB         0.0 MB |
| BLAS internal memory storage                          0.0 MB         0.0 MB |
| Model and support data                               35.0 MB         0.0 MB |
| Electronic energy minimisation requirements           1.7 MB         0.0 MB |
| Force calculation requirements                        0.6 MB         0.0 MB |
|                                               ----------------------------- |
| Approx. total storage required per process          232.7 MB         0.0 MB |
|                                                                             |
| Requirements will fluctuate during execution and may exceed these estimates |
+-----------------------------------------------------------------------------+
Calculating finite basis set correction with  3 cut-off energies.
Calculating total energy with cut-off of  590.000 eV.
------------------------------------------------------------------------ <-- SCF
SCF loop      Energy           Fermi           Energy gain       Timer   <-- SCF
                               energy          per atom          (sec)   <-- SCF
------------------------------------------------------------------------ <-- SCF
Initial  -2.22505864E+003  0.00000000E+000                         8.20  <-- SCF
      1  -2.86901020E+003  1.29617547E+001   6.43951559E+001       8.23  <-- SCF
      2  -3.08756043E+003  8.66214102E+000   2.18550229E+001       8.26  <-- SCF
      3  -3.09279161E+003  8.56850402E+000   5.23118118E-001       8.29  <-- SCF
      4  -3.08797187E+003  1.01685074E+001  -4.81974390E-001       8.33  <-- SCF
      5  -3.08486904E+003  9.55826267E+000  -3.10282631E-001       8.38  <-- SCF
      6  -3.08492107E+003  9.60242489E+000   5.20274624E-003       8.43  <-- SCF
      7  -3.08491608E+003  9.63971937E+000  -4.98930792E-004       8.48  <-- SCF
      8  -3.08491625E+003  9.65687909E+000   1.75281299E-005       8.53  <-- SCF
      9  -3.08491612E+003  9.65630540E+000  -1.35591717E-005       8.57  <-- SCF
     10  -3.08491610E+003  9.65584421E+000  -1.18364824E-006       8.61  <-- SCF
     11  -3.08491611E+003  9.65603814E+000   2.45938862E-007       8.65  <-- SCF
------------------------------------------------------------------------ <-- SCF
 
Final energy, E             =  -3084.916107389     eV
Final free energy (E-TS)    =  -3084.916107389     eV
(energies not corrected for finite basis set)
 
NB est. 0K energy (E-0.5TS)      =  -3084.916107389     eV
 
Calculating total energy with cut-off of  595.000 eV.
------------------------------------------------------------------------ <-- SCF
SCF loop      Energy           Fermi           Energy gain       Timer   <-- SCF
                               energy          per atom          (sec)   <-- SCF
------------------------------------------------------------------------ <-- SCF
Initial  -3.08491611E+003  0.00000000E+000                         8.70  <-- SCF
      1  -3.08514307E+003  9.65619681E+000   2.26964326E-002       8.73  <-- SCF
      2  -3.08514316E+003  9.65619680E+000   8.95094990E-006       8.77  <-- SCF
      3  -3.08514344E+003  9.65984450E+000   2.77901814E-005       8.81  <-- SCF
      4  -3.08514343E+003  9.65783939E+000  -1.39391867E-006       8.85  <-- SCF
      5  -3.08514343E+003  9.65779459E+000   5.52085450E-007       8.89  <-- SCF
------------------------------------------------------------------------ <-- SCF
 
Final energy, E             =  -3085.143430702     eV
Final free energy (E-TS)    =  -3085.143430702     eV
(energies not corrected for finite basis set)
 
NB est. 0K energy (E-0.5TS)      =  -3085.143430702     eV
 
Calculating total energy with cut-off of  600.000 eV.
------------------------------------------------------------------------ <-- SCF
SCF loop      Energy           Fermi           Energy gain       Timer   <-- SCF
                               energy          per atom          (sec)   <-- SCF
------------------------------------------------------------------------ <-- SCF
Initial  -3.08514343E+003  0.00000000E+000                         8.94  <-- SCF
      1  -3.08544432E+003  9.65794849E+000   3.00888181E-002       8.97  <-- SCF
      2  -3.08544446E+003  9.65794847E+000   1.38386247E-005       9.01  <-- SCF
      3  -3.08544478E+003  9.66320746E+000   3.27665399E-005       9.06  <-- SCF
      4  -3.08544475E+003  9.66052799E+000  -3.76188797E-006       9.10  <-- SCF
      5  -3.08544476E+003  9.66042199E+000   1.07868536E-006       9.13  <-- SCF
------------------------------------------------------------------------ <-- SCF
 
Final energy, E             =  -3085.444758070     eV
Final free energy (E-TS)    =  -3085.444758070     eV
(energies not corrected for finite basis set)
 
NB est. 0K energy (E-0.5TS)      =  -3085.444758070     eV
 
 For future reference: finite basis dEtot/dlog(Ecut) =     -28.510030eV
 Total energy corrected for finite basis set =   -3085.280327 eV
 
+---------------- MEMORY AND SCRATCH DISK ESTIMATES PER PROCESS --------------+
|                                                     Memory          Disk    |
| Model and support data                               46.8 MB         0.0 MB |
| Electronic energy minimisation requirements           1.7 MB         0.0 MB |
| Geometry minimisation requirements                    1.8 MB         0.0 MB |
|                                               ----------------------------- |
| Approx. total storage required per process           50.3 MB         0.0 MB |
|                                                                             |
| Requirements will fluctuate during execution and may exceed these estimates |
+-----------------------------------------------------------------------------+
 

 ************************************** Forces **************************************
 *                                                                                  *
 *                           Cartesian components (eV/A)                            *
 * -------------------------------------------------------------------------------- *
 *                         x                    y                    z              *
 *                                                                                  *
 * O               1      0.56727              0.00008              0.00015         *
 * O               2     -0.28364             -0.49118             -0.00024         *
 * O               3     -0.28356              0.49111             -0.00016         *
 * O               4      0.28374              0.49118              0.00020         *
 * O               5      0.28351             -0.49115             -0.00004         *
 * O               6     -0.56710             -0.00014             -0.00018         *
 * Al              1     -0.00005              0.00003             -0.13043         *
 * Al              2     -0.00005              0.00002             -0.13043         *
 * Al              3     -0.00006              0.00001              0.13057         *
 * Al              4     -0.00005              0.00004              0.13055         *
 *                                                                                  *
 ************************************************************************************

 ***************** Stress Tensor *****************
 *                                               *
 *          Cartesian components (GPa)           *
 * --------------------------------------------- *
 *             x             y             z     *
 *                                               *
 *  x     -4.525527      0.000106     -0.000151  *
 *  y      0.000106     -4.525771     -0.000174  *
 *  z     -0.000151     -0.000174     -6.134087  *
 *                                               *
 *  Pressure:    5.0618                          *
 *                                               *
 *************************************************
 LBFGS: finished iteration     0 with enthalpy= -3.08528033E+003 eV
  
 +-----------+-----------------+-----------------+------------+-----+ <-- LBFGS
 | Parameter |      value      |    tolerance    |    units   | OK? | <-- LBFGS
 +-----------+-----------------+-----------------+------------+-----+ <-- LBFGS
 |  dE/ion   |   0.000000E+000 |   1.000000E-005 |         eV | No  | <-- LBFGS
 |  |F|max   |   5.672746E-001 |   1.000000E-002 |       eV/A | No  | <-- LBFGS
 |  |dR|max  |   0.000000E+000 |   1.000000E-003 |          A | No  | <-- LBFGS
 |   Smax    |   6.134087E+000 |   1.000000E-001 |        GPa | No  | <-- LBFGS
 +-----------+-----------------+-----------------+------------+-----+ <-- LBFGS
  

================================================================================
 Starting LBFGS iteration          1 ...
================================================================================
  
 +------------+-------------+-------------+-----------------+ <-- min LBFGS
 |    Step    |   lambda    |   F.delta'  |    enthalpy     | <-- min LBFGS
 +------------+-------------+-------------+-----------------+ <-- min LBFGS
 |  previous  |    0.000000 |    0.220283 |    -3085.280327 | <-- min LBFGS
 +------------+-------------+-------------+-----------------+ <-- min LBFGS
  

--------------------------------------------------------------------------------
 LBFGS: starting iteration         1 with trial guess (lambda=  1.000000)
--------------------------------------------------------------------------------
 
+---------------- MEMORY AND SCRATCH DISK ESTIMATES PER PROCESS --------------+
|                                                     Memory          Disk    |
| Model and support data                               46.8 MB         0.0 MB |
| Electronic energy minimisation requirements           1.7 MB         0.0 MB |
| Geometry minimisation requirements                    1.8 MB         0.0 MB |
|                                               ----------------------------- |
| Approx. total storage required per process           50.3 MB         0.0 MB |
|                                                                             |
| Requirements will fluctuate during execution and may exceed these estimates |
+-----------------------------------------------------------------------------+
 

                           -------------------------------
                                      Unit Cell
                           -------------------------------
        Real Lattice(A)              Reciprocal Lattice(1/A)
     2.3872811     1.3782974     4.3487116        1.315971150   0.759776232   0.481612673
    -2.3872805     1.3782977     4.3487111       -1.315971140   0.759776046   0.481612936
     0.0000006    -2.7565946     4.3487108       -0.000000155  -1.519552446   0.481612893

                       Lattice parameters(A)       Cell Angles
                    a =      5.148797          alpha =   55.246828
                    b =      5.148796          beta  =   55.246817
                    c =      5.148796          gamma =   55.246814

                Current cell volume =            85.853549 A**3
                            density =             2.375237 amu/A**3
                                    =             3.944174 g/cm^3

                           -------------------------------
                                     Cell Contents
                           -------------------------------

            xxxxxxxxxxxxxxxxxxxxxxxxxxxxxxxxxxxxxxxxxxxxxxxxxxxxxxxxxxxxxxxxx
            x  Element         Atom        Fractional coordinates of atoms  x
            x                 Number           u          v          w      x
            x---------------------------------------------------------------x
            x  O                 1         0.556831   0.943169   0.250000   x
            x  O                 2         0.943169   0.250000   0.556831   x
            x  O                 3         0.250000   0.556831   0.943169   x
            x  O                 4         0.056831   0.750000   0.443169   x
            x  O                 5         0.750000   0.443169   0.056831   x
            x  O                 6         0.443169   0.056831   0.750000   x
            x  Al                1         0.147852   0.147852   0.147852   x
            x  Al                2         0.647852   0.647852   0.647852   x
            x  Al                3         0.852148   0.852148   0.852148   x
            x  Al                4         0.352148   0.352148   0.352148   x
            xxxxxxxxxxxxxxxxxxxxxxxxxxxxxxxxxxxxxxxxxxxxxxxxxxxxxxxxxxxxxxxxx


------------------------------------------------------------------------ <-- SCF
SCF loop      Energy           Fermi           Energy gain       Timer   <-- SCF
                               energy          per atom          (sec)   <-- SCF
------------------------------------------------------------------------ <-- SCF
Initial  -3.08511808E+003  0.00000000E+000                         9.54  <-- SCF
      1  -3.08544197E+003  9.34191249E+000   3.23890384E-002       9.57  <-- SCF
      2  -3.08544286E+003  9.34184865E+000   8.94655674E-005       9.62  <-- SCF
      3  -3.08538429E+003  9.50451162E+000  -5.85776190E-003       9.67  <-- SCF
      4  -3.08534506E+003  9.43451979E+000  -3.92289909E-003       9.71  <-- SCF
      5  -3.08534563E+003  9.43433000E+000   5.72388907E-005       9.76  <-- SCF
      6  -3.08534558E+003  9.43564495E+000  -4.72274859E-006       9.80  <-- SCF
      7  -3.08534558E+003  9.43739871E+000  -8.16347255E-007       9.84  <-- SCF
------------------------------------------------------------------------ <-- SCF
 
Final energy, E             =  -3085.345575092     eV
Final free energy (E-TS)    =  -3085.345575092     eV
(energies not corrected for finite basis set)
 
NB est. 0K energy (E-0.5TS)      =  -3085.345575092     eV
 

 ************************************** Forces **************************************
 *                                                                                  *
 *                           Cartesian components (eV/A)                            *
 * -------------------------------------------------------------------------------- *
 *                         x                    y                    z              *
 *                                                                                  *
 * O               1      0.49755              0.00005             -0.00002         *
 * O               2     -0.24850             -0.43119              0.00041         *
 * O               3     -0.24830              0.43119             -0.00033         *
 * O               4      0.24859              0.43115             -0.00043         *
 * O               5      0.24845             -0.43116              0.00023         *
 * O               6     -0.49778             -0.00002              0.00013         *
 * Al              1      0.00003             -0.00001             -0.10583         *
 * Al              2     -0.00004              0.00004             -0.10582         *
 * Al              3     -0.00001              0.00004              0.10581         *
 * Al              4      0.00002             -0.00008              0.10585         *
 *                                                                                  *
 ************************************************************************************

 ***************** Stress Tensor *****************
 *                                               *
 *          Cartesian components (GPa)           *
 * --------------------------------------------- *
 *             x             y             z     *
 *                                               *
 *  x     -0.711782      0.000064      0.000372  *
 *  y      0.000064     -0.710028      0.001365  *
 *  z      0.000372      0.001365     -2.397458  *
 *                                               *
 *  Pressure:    1.2731                          *
 *                                               *
 *************************************************
  
 +------------+-------------+-------------+-----------------+ <-- min LBFGS
 |    Step    |   lambda    |   F.delta'  |    enthalpy     | <-- min LBFGS
 +------------+-------------+-------------+-----------------+ <-- min LBFGS
 |  previous  |    0.000000 |    0.220283 |    -3085.280327 | <-- min LBFGS
 | trial step |    1.000000 |    0.093913 |    -3085.293675 | <-- min LBFGS
 +------------+-------------+-------------+-----------------+ <-- min LBFGS
  

--------------------------------------------------------------------------------
 LBFGS: improving iteration         1 with line minimization (lambda=  1.743164)
--------------------------------------------------------------------------------
 
+---------------- MEMORY AND SCRATCH DISK ESTIMATES PER PROCESS --------------+
|                                                     Memory          Disk    |
| Model and support data                               50.2 MB         0.0 MB |
| Electronic energy minimisation requirements           1.9 MB         0.0 MB |
| Geometry minimisation requirements                    2.1 MB         0.0 MB |
|                                               ----------------------------- |
| Approx. total storage required per process           54.1 MB         0.0 MB |
|                                                                             |
| Requirements will fluctuate during execution and may exceed these estimates |
+-----------------------------------------------------------------------------+
 

                           -------------------------------
                                      Unit Cell
                           -------------------------------
        Real Lattice(A)              Reciprocal Lattice(1/A)
     2.3926179     1.3813789     4.3618741        1.313036000   0.758081556   0.480159207
    -2.3926167     1.3813794     4.3618733       -1.313035982   0.758081235   0.480159664
     0.0000011    -2.7627567     4.3618729       -0.000000269  -1.516163081   0.480159718

                       Lattice parameters(A)       Cell Angles
                    a =      5.163214          alpha =   55.213079
                    b =      5.163212          beta  =   55.213060
                    c =      5.163212          gamma =   55.213054

                Current cell volume =            86.498839 A**3
                            density =             2.357518 amu/A**3
                                    =             3.914750 g/cm^3

                           -------------------------------
                                     Cell Contents
                           -------------------------------

            xxxxxxxxxxxxxxxxxxxxxxxxxxxxxxxxxxxxxxxxxxxxxxxxxxxxxxxxxxxxxxxxx
            x  Element         Atom        Fractional coordinates of atoms  x
            x                 Number           u          v          w      x
            x---------------------------------------------------------------x
            x  O                 1         0.557256   0.942744   0.250000   x
            x  O                 2         0.942744   0.250000   0.557255   x
            x  O                 3         0.250000   0.557255   0.942744   x
            x  O                 4         0.057256   0.750000   0.442744   x
            x  O                 5         0.750000   0.442745   0.057255   x
            x  O                 6         0.442744   0.057255   0.750000   x
            x  Al                1         0.147816   0.147816   0.147816   x
            x  Al                2         0.647816   0.647816   0.647816   x
            x  Al                3         0.852184   0.852184   0.852184   x
            x  Al                4         0.352184   0.352184   0.352184   x
            xxxxxxxxxxxxxxxxxxxxxxxxxxxxxxxxxxxxxxxxxxxxxxxxxxxxxxxxxxxxxxxxx


------------------------------------------------------------------------ <-- SCF
SCF loop      Energy           Fermi           Energy gain       Timer   <-- SCF
                               energy          per atom          (sec)   <-- SCF
------------------------------------------------------------------------ <-- SCF
Initial  -3.08511876E+003  0.00000000E+000                        11.57  <-- SCF
      1  -3.08533960E+003  9.20152195E+000   2.20835388E-002      11.61  <-- SCF
      2  -3.08534012E+003  9.20148730E+000   5.25302564E-005      11.68  <-- SCF
      3  -3.08530748E+003  9.32200027E+000  -3.26371616E-003      11.74  <-- SCF
      4  -3.08528519E+003  9.26961651E+000  -2.22966731E-003      11.79  <-- SCF
      5  -3.08528551E+003  9.26941599E+000   3.24339947E-005      11.86  <-- SCF
      6  -3.08528548E+003  9.27043295E+000  -2.73187126E-006      11.90  <-- SCF
      7  -3.08528548E+003  9.27167324E+000  -3.80964927E-007      11.95  <-- SCF
------------------------------------------------------------------------ <-- SCF
 
Final energy, E             =  -3085.285480222     eV
Final free energy (E-TS)    =  -3085.285480222     eV
(energies not corrected for finite basis set)
 
NB est. 0K energy (E-0.5TS)      =  -3085.285480222     eV
 

 ************************************** Forces **************************************
 *                                                                                  *
 *                           Cartesian components (eV/A)                            *
 * -------------------------------------------------------------------------------- *
 *                         x                    y                    z              *
 *                                                                                  *
 * O               1      0.47525             -0.00003             -0.00009         *
 * O               2     -0.23761             -0.41147              0.00012         *
 * O               3     -0.23773              0.41166              0.00007         *
 * O               4      0.23763              0.41148             -0.00016         *
 * O               5      0.23776             -0.41163             -0.00002         *
 * O               6     -0.47528              0.00005              0.00010         *
 * Al              1     -0.00003              0.00001             -0.09207         *
 * Al              2     -0.00001             -0.00005             -0.09207         *
 * Al              3      0.00002             -0.00003              0.09205         *
 * Al              4      0.00001              0.00000              0.09206         *
 *                                                                                  *
 ************************************************************************************

 ***************** Stress Tensor *****************
 *                                               *
 *          Cartesian components (GPa)           *
 * --------------------------------------------- *
 *             x             y             z     *
 *                                               *
 *  x      1.596880      0.001434      0.000780  *
 *  y      0.001434      1.597316      0.000103  *
 *  z      0.000780      0.000103     -0.054186  *
 *                                               *
 *  Pressure:   -1.0467                          *
 *                                               *
 *************************************************
  
 +------------+-------------+-------------+-----------------+ <-- min LBFGS
 |    Step    |   lambda    |   F.delta'  |    enthalpy     | <-- min LBFGS
 +------------+-------------+-------------+-----------------+ <-- min LBFGS
 |  previous  |    0.000000 |    0.220283 |    -3085.280327 | <-- min LBFGS
 | trial step |    1.000000 |    0.093913 |    -3085.293675 | <-- min LBFGS
 |  line step |    1.743164 |    0.017502 |    -3085.296681 | <-- min LBFGS
 +------------+-------------+-------------+-----------------+ <-- min LBFGS
  
 LBFGS: finished iteration     1 with enthalpy= -3.08529668E+003 eV
  
 +-----------+-----------------+-----------------+------------+-----+ <-- LBFGS
 | Parameter |      value      |    tolerance    |    units   | OK? | <-- LBFGS
 +-----------+-----------------+-----------------+------------+-----+ <-- LBFGS
 |  dE/ion   |   1.635421E-003 |   1.000000E-005 |         eV | No  | <-- LBFGS
 |  |F|max   |   4.753775E-001 |   1.000000E-002 |       eV/A | No  | <-- LBFGS
 |  |dR|max  |   4.765472E-003 |   1.000000E-003 |          A | No  | <-- LBFGS
 |   Smax    |   1.597316E+000 |   1.000000E-001 |        GPa | No  | <-- LBFGS
 +-----------+-----------------+-----------------+------------+-----+ <-- LBFGS
  

================================================================================
 Starting LBFGS iteration          2 ...
================================================================================
  
 +------------+-------------+-------------+-----------------+ <-- min LBFGS
 |    Step    |   lambda    |   F.delta'  |    enthalpy     | <-- min LBFGS
 +------------+-------------+-------------+-----------------+ <-- min LBFGS
 |  previous  |    0.000000 |    0.133339 |    -3085.296681 | <-- min LBFGS
 +------------+-------------+-------------+-----------------+ <-- min LBFGS
  

--------------------------------------------------------------------------------
 LBFGS: starting iteration         2 with trial guess (lambda=  1.000000)
--------------------------------------------------------------------------------

                           -------------------------------
                                      Unit Cell
                           -------------------------------
        Real Lattice(A)              Reciprocal Lattice(1/A)
     2.3921801     1.3811252     4.3678473        1.313275301   0.758220723   0.479503152
    -2.3921865     1.3811309     4.3678491       -1.313273147   0.758217593   0.479502208
     0.0000017    -2.7622549     4.3678475       -0.000001634  -1.516438552   0.479502878

                       Lattice parameters(A)       Cell Angles
                    a =      5.167990          alpha =   55.146825
                    b =      5.167996          beta  =   55.146736
                    c =      5.167992          gamma =   55.146776

                Current cell volume =            86.585872 A**3
                            density =             2.355148 amu/A**3
                                    =             3.910816 g/cm^3

                           -------------------------------
                                     Cell Contents
                           -------------------------------

            xxxxxxxxxxxxxxxxxxxxxxxxxxxxxxxxxxxxxxxxxxxxxxxxxxxxxxxxxxxxxxxxx
            x  Element         Atom        Fractional coordinates of atoms  x
            x                 Number           u          v          w      x
            x---------------------------------------------------------------x
            x  O                 1         0.557966   0.942034   0.250000   x
            x  O                 2         0.942035   0.250000   0.557965   x
            x  O                 3         0.250000   0.557965   0.942034   x
            x  O                 4         0.057966   0.750000   0.442035   x
            x  O                 5         0.750000   0.442035   0.057965   x
            x  O                 6         0.442034   0.057965   0.750000   x
            x  Al                1         0.147763   0.147763   0.147763   x
            x  Al                2         0.647763   0.647763   0.647763   x
            x  Al                3         0.852237   0.852237   0.852237   x
            x  Al                4         0.352237   0.352237   0.352237   x
            xxxxxxxxxxxxxxxxxxxxxxxxxxxxxxxxxxxxxxxxxxxxxxxxxxxxxxxxxxxxxxxxx


------------------------------------------------------------------------ <-- SCF
SCF loop      Energy           Fermi           Energy gain       Timer   <-- SCF
                               energy          per atom          (sec)   <-- SCF
------------------------------------------------------------------------ <-- SCF
Initial  -3.08517123E+003  0.00000000E+000                        12.54  <-- SCF
      1  -3.08531067E+003  9.23523808E+000   1.39443818E-002      12.58  <-- SCF
      2  -3.08531253E+003  9.23523551E+000   1.85249660E-004      12.64  <-- SCF
      3  -3.08527612E+003  9.25834598E+000  -3.64096327E-003      12.70  <-- SCF
      4  -3.08527571E+003  9.24664171E+000  -4.09154472E-005      12.77  <-- SCF
      5  -3.08527556E+003  9.25090230E+000  -1.45249636E-005      12.82  <-- SCF
      6  -3.08527556E+003  9.25015666E+000  -2.03257987E-007      12.87  <-- SCF
      7  -3.08527556E+003  9.24971896E+000  -6.23011490E-009      12.91  <-- SCF
------------------------------------------------------------------------ <-- SCF
 
Final energy, E             =  -3085.275559129     eV
Final free energy (E-TS)    =  -3085.275559129     eV
(energies not corrected for finite basis set)
 
NB est. 0K energy (E-0.5TS)      =  -3085.275559129     eV
 

 ************************************** Forces **************************************
 *                                                                                  *
 *                           Cartesian components (eV/A)                            *
 * -------------------------------------------------------------------------------- *
 *                         x                    y                    z              *
 *                                                                                  *
 * O               1      0.40311             -0.00001             -0.00004         *
 * O               2     -0.20162             -0.34911             -0.00007         *
 * O               3     -0.20158              0.34906             -0.00003         *
 * O               4      0.20158              0.34908              0.00008         *
 * O               5      0.20161             -0.34904              0.00004         *
 * O               6     -0.40314              0.00002              0.00005         *
 * Al              1      0.00000             -0.00002             -0.06177         *
 * Al              2      0.00002              0.00001             -0.06176         *
 * Al              3      0.00001              0.00002              0.06174         *
 * Al              4      0.00000             -0.00002              0.06175         *
 *                                                                                  *
 ************************************************************************************

 ***************** Stress Tensor *****************
 *                                               *
 *          Cartesian components (GPa)           *
 * --------------------------------------------- *
 *             x             y             z     *
 *                                               *
 *  x      1.605625     -0.000960     -0.000320  *
 *  y     -0.000960      1.606017     -0.000019  *
 *  z     -0.000320     -0.000019      0.825983  *
 *                                               *
 *  Pressure:   -1.3459                          *
 *                                               *
 *************************************************
  
 +------------+-------------+-------------+-----------------+ <-- min LBFGS
 |    Step    |   lambda    |   F.delta'  |    enthalpy     | <-- min LBFGS
 +------------+-------------+-------------+-----------------+ <-- min LBFGS
 |  previous  |    0.000000 |    0.133339 |    -3085.296681 | <-- min LBFGS
 | trial step |    1.000000 |    0.104787 |    -3085.305875 | <-- min LBFGS
 +------------+-------------+-------------+-----------------+ <-- min LBFGS
  

--------------------------------------------------------------------------------
 LBFGS: improving iteration         2 with line minimization (lambda=  4.670075)
--------------------------------------------------------------------------------
 
+---------------- MEMORY AND SCRATCH DISK ESTIMATES PER PROCESS --------------+
|                                                     Memory          Disk    |
| Model and support data                               50.2 MB         0.0 MB |
| Electronic energy minimisation requirements           1.9 MB         0.0 MB |
| Geometry minimisation requirements                    2.1 MB         0.0 MB |
|                                               ----------------------------- |
| Approx. total storage required per process           54.2 MB         0.0 MB |
|                                                                             |
| Requirements will fluctuate during execution and may exceed these estimates |
+-----------------------------------------------------------------------------+
 

                           -------------------------------
                                      Unit Cell
                           -------------------------------
        Real Lattice(A)              Reciprocal Lattice(1/A)
     2.3905732     1.3801942     4.3897695        1.314154295   0.758731914   0.477110685
    -2.3906075     1.3802187     4.3897806       -1.314144303   0.758718459   0.477104631
     0.0000040    -2.7604135     4.3897749       -0.000006657  -1.517450410   0.477107549

                       Lattice parameters(A)       Cell Angles
                    a =      5.185543          alpha =   54.904636
                    b =      5.185574          beta  =   54.904291
                    c =      5.185557          gamma =   54.904502

                Current cell volume =            86.904604 A**3
                            density =             2.346510 amu/A**3
                                    =             3.896472 g/cm^3

                           -------------------------------
                                     Cell Contents
                           -------------------------------

            xxxxxxxxxxxxxxxxxxxxxxxxxxxxxxxxxxxxxxxxxxxxxxxxxxxxxxxxxxxxxxxxx
            x  Element         Atom        Fractional coordinates of atoms  x
            x                 Number           u          v          w      x
            x---------------------------------------------------------------x
            x  O                 1         0.560571   0.939429   0.250000   x
            x  O                 2         0.939430   0.250000   0.560570   x
            x  O                 3         0.250000   0.560571   0.939429   x
            x  O                 4         0.060571   0.749999   0.439430   x
            x  O                 5         0.750000   0.439429   0.060571   x
            x  O                 6         0.439429   0.060570   0.750000   x
            x  Al                1         0.147569   0.147569   0.147569   x
            x  Al                2         0.647569   0.647569   0.647569   x
            x  Al                3         0.852431   0.852431   0.852431   x
            x  Al                4         0.352431   0.352431   0.352431   x
            xxxxxxxxxxxxxxxxxxxxxxxxxxxxxxxxxxxxxxxxxxxxxxxxxxxxxxxxxxxxxxxxx


------------------------------------------------------------------------ <-- SCF
SCF loop      Energy           Fermi           Energy gain       Timer   <-- SCF
                               energy          per atom          (sec)   <-- SCF
------------------------------------------------------------------------ <-- SCF
Initial  -3.08381450E+003  0.00000000E+000                        14.83  <-- SCF
      1  -3.08594791E+003  9.11392443E+000   2.13341304E-001      14.86  <-- SCF
      2  -3.08598180E+003  9.11389117E+000   3.38956212E-003      14.92  <-- SCF
      3  -3.08549269E+003  9.20894530E+000  -4.89116384E-002      14.98  <-- SCF
      4  -3.08548454E+003  9.15666831E+000  -8.15140329E-004      15.05  <-- SCF
      5  -3.08548203E+003  9.17342499E+000  -2.50612556E-004      15.11  <-- SCF
      6  -3.08548199E+003  9.17079263E+000  -3.88579688E-006      15.16  <-- SCF
      7  -3.08548200E+003  9.16930758E+000   3.71559836E-007      15.21  <-- SCF
------------------------------------------------------------------------ <-- SCF
 
Final energy, E             =  -3085.481995787     eV
Final free energy (E-TS)    =  -3085.481995787     eV
(energies not corrected for finite basis set)
 
NB est. 0K energy (E-0.5TS)      =  -3085.481995787     eV
 

 ************************************** Forces **************************************
 *                                                                                  *
 *                           Cartesian components (eV/A)                            *
 * -------------------------------------------------------------------------------- *
 *                         x                    y                    z              *
 *                                                                                  *
 * O               1      0.11402              0.00002              0.00009         *
 * O               2     -0.05713             -0.09910             -0.00003         *
 * O               3     -0.05719              0.09894              0.00006         *
 * O               4      0.05702              0.09898              0.00004         *
 * O               5      0.05722             -0.09891             -0.00004         *
 * O               6     -0.11419             -0.00000             -0.00010         *
 * Al              1      0.00007             -0.00006              0.04247         *
 * Al              2      0.00007              0.00008              0.04249         *
 * Al              3      0.00006              0.00009             -0.04249         *
 * Al              4      0.00007             -0.00005             -0.04250         *
 *                                                                                  *
 ************************************************************************************

 ***************** Stress Tensor *****************
 *                                               *
 *          Cartesian components (GPa)           *
 * --------------------------------------------- *
 *             x             y             z     *
 *                                               *
 *  x     -0.303478     -0.003484     -0.001756  *
 *  y     -0.003484     -0.304517      0.000596  *
 *  z     -0.001756      0.000596      0.584896  *
 *                                               *
 *  Pressure:    0.0077                          *
 *                                               *
 *************************************************
  
 +------------+-------------+-------------+-----------------+ <-- min LBFGS
 |    Step    |   lambda    |   F.delta'  |    enthalpy     | <-- min LBFGS
 +------------+-------------+-------------+-----------------+ <-- min LBFGS
 |  previous  |    0.000000 |    0.133339 |    -3085.296681 | <-- min LBFGS
 | trial step |    1.000000 |    0.104787 |    -3085.305875 | <-- min LBFGS
 |  line step |    4.670075 |    0.022225 |    -3085.307443 | <-- min LBFGS
 +------------+-------------+-------------+-----------------+ <-- min LBFGS
  
 LBFGS: finished iteration     2 with enthalpy= -3.08530744E+003 eV
  
 +-----------+-----------------+-----------------+------------+-----+ <-- LBFGS
 | Parameter |      value      |    tolerance    |    units   | OK? | <-- LBFGS
 +-----------+-----------------+-----------------+------------+-----+ <-- LBFGS
 |  dE/ion   |   1.076157E-003 |   1.000000E-005 |         eV | No  | <-- LBFGS
 |  |F|max   |   1.143890E-001 |   1.000000E-002 |       eV/A | No  | <-- LBFGS
 |  |dR|max  |   1.585156E-002 |   1.000000E-003 |          A | No  | <-- LBFGS
 |   Smax    |   5.848959E-001 |   1.000000E-001 |        GPa | No  | <-- LBFGS
 +-----------+-----------------+-----------------+------------+-----+ <-- LBFGS
  

================================================================================
 Starting LBFGS iteration          3 ...
================================================================================
  
 +------------+-------------+-------------+-----------------+ <-- min LBFGS
 |    Step    |   lambda    |   F.delta'  |    enthalpy     | <-- min LBFGS
 +------------+-------------+-------------+-----------------+ <-- min LBFGS
 |  previous  |    0.000000 |    0.028825 |    -3085.307443 | <-- min LBFGS
 +------------+-------------+-------------+-----------------+ <-- min LBFGS
  

--------------------------------------------------------------------------------
 LBFGS: starting iteration         3 with trial guess (lambda=  1.000000)
--------------------------------------------------------------------------------

                           -------------------------------
                                      Unit Cell
                           -------------------------------
        Real Lattice(A)              Reciprocal Lattice(1/A)
     2.3913079     1.3806177     4.3940430        1.313752349   0.758498204   0.476645952
    -2.3913286     1.3806330     4.3940495       -1.313746197   0.758489785   0.476642417
     0.0000029    -2.7612579     4.3940483       -0.000004215  -1.516987303   0.476642944

                       Lattice parameters(A)       Cell Angles
                    a =      5.189612          alpha =   54.876084
                    b =      5.189631          beta  =   54.875863
                    c =      5.189625          gamma =   54.876008

                Current cell volume =            87.042214 A**3
                            density =             2.342801 amu/A**3
                                    =             3.890312 g/cm^3

                           -------------------------------
                                     Cell Contents
                           -------------------------------

            xxxxxxxxxxxxxxxxxxxxxxxxxxxxxxxxxxxxxxxxxxxxxxxxxxxxxxxxxxxxxxxxx
            x  Element         Atom        Fractional coordinates of atoms  x
            x                 Number           u          v          w      x
            x---------------------------------------------------------------x
            x  O                 1         0.561352   0.938649   0.250000   x
            x  O                 2         0.938649   0.250000   0.561350   x
            x  O                 3         0.250000   0.561352   0.938648   x
            x  O                 4         0.061351   0.749999   0.438649   x
            x  O                 5         0.750000   0.438648   0.061351   x
            x  O                 6         0.438649   0.061351   0.750000   x
            x  Al                1         0.147540   0.147540   0.147540   x
            x  Al                2         0.647540   0.647540   0.647540   x
            x  Al                3         0.852460   0.852461   0.852460   x
            x  Al                4         0.352460   0.352461   0.352460   x
            xxxxxxxxxxxxxxxxxxxxxxxxxxxxxxxxxxxxxxxxxxxxxxxxxxxxxxxxxxxxxxxxx


------------------------------------------------------------------------ <-- SCF
SCF loop      Energy           Fermi           Energy gain       Timer   <-- SCF
                               energy          per atom          (sec)   <-- SCF
------------------------------------------------------------------------ <-- SCF
Initial  -3.08533096E+003  0.00000000E+000                        15.81  <-- SCF
      1  -3.08549393E+003  9.12069669E+000   1.62971173E-002      15.84  <-- SCF
      2  -3.08549632E+003  9.12069495E+000   2.39566011E-004      15.90  <-- SCF
      3  -3.08545394E+003  9.14540501E+000  -4.23831156E-003      15.96  <-- SCF
      4  -3.08545306E+003  9.12826788E+000  -8.76661449E-005      16.03  <-- SCF
      5  -3.08545281E+003  9.13336780E+000  -2.50886853E-005      16.09  <-- SCF
      6  -3.08545281E+003  9.13279427E+000  -2.24841908E-008      16.13  <-- SCF
      7  -3.08545281E+003  9.13235381E+000   3.02641488E-008      16.18  <-- SCF
------------------------------------------------------------------------ <-- SCF
 
Final energy, E             =  -3085.452812110     eV
Final free energy (E-TS)    =  -3085.452812110     eV
(energies not corrected for finite basis set)
 
NB est. 0K energy (E-0.5TS)      =  -3085.452812110     eV
 

 ************************************** Forces **************************************
 *                                                                                  *
 *                           Cartesian components (eV/A)                            *
 * -------------------------------------------------------------------------------- *
 *                         x                    y                    z              *
 *                                                                                  *
 * O               1      0.03117              0.00007              0.00006         *
 * O               2     -0.01568             -0.02705             -0.00005         *
 * O               3     -0.01551              0.02702              0.00002         *
 * O               4      0.01562              0.02709              0.00006         *
 * O               5      0.01553             -0.02702             -0.00001         *
 * O               6     -0.03121             -0.00006             -0.00005         *
 * Al              1      0.00003             -0.00005              0.05895         *
 * Al              2      0.00000              0.00006              0.05895         *
 * Al              3      0.00000              0.00002             -0.05898         *
 * Al              4      0.00004             -0.00007             -0.05897         *
 *                                                                                  *
 ************************************************************************************

 ***************** Stress Tensor *****************
 *                                               *
 *          Cartesian components (GPa)           *
 * --------------------------------------------- *
 *             x             y             z     *
 *                                               *
 *  x      0.172369     -0.001558     -0.000723  *
 *  y     -0.001558      0.172198     -0.000265  *
 *  z     -0.000723     -0.000265      1.419693  *
 *                                               *
 *  Pressure:   -0.5881                          *
 *                                               *
 *************************************************
  
 +------------+-------------+-------------+-----------------+ <-- min LBFGS
 |    Step    |   lambda    |   F.delta'  |    enthalpy     | <-- min LBFGS
 +------------+-------------+-------------+-----------------+ <-- min LBFGS
 |  previous  |    0.000000 |    0.028825 |    -3085.307443 | <-- min LBFGS
 | trial step |    1.000000 |   -0.002505 |    -3085.308332 | <-- min LBFGS
 +------------+-------------+-------------+-----------------+ <-- min LBFGS
  
 LBFGS: finished iteration     3 with enthalpy= -3.08530833E+003 eV
  
 +-----------+-----------------+-----------------+------------+-----+ <-- LBFGS
 | Parameter |      value      |    tolerance    |    units   | OK? | <-- LBFGS
 +-----------+-----------------+-----------------+------------+-----+ <-- LBFGS
 |  dE/ion   |   8.888381E-005 |   1.000000E-005 |         eV | No  | <-- LBFGS
 |  |F|max   |   5.897683E-002 |   1.000000E-002 |       eV/A | No  | <-- LBFGS
 |  |dR|max  |   3.734718E-003 |   1.000000E-003 |          A | No  | <-- LBFGS
 |   Smax    |   1.419693E+000 |   1.000000E-001 |        GPa | No  | <-- LBFGS
 +-----------+-----------------+-----------------+------------+-----+ <-- LBFGS
  

================================================================================
 Starting LBFGS iteration          4 ...
================================================================================
  
 +------------+-------------+-------------+-----------------+ <-- min LBFGS
 |    Step    |   lambda    |   F.delta'  |    enthalpy     | <-- min LBFGS
 +------------+-------------+-------------+-----------------+ <-- min LBFGS
 |  previous  |    0.000000 |    0.032083 |    -3085.308332 | <-- min LBFGS
 +------------+-------------+-------------+-----------------+ <-- min LBFGS
  

--------------------------------------------------------------------------------
 LBFGS: starting iteration         4 with trial guess (lambda=  1.000000)
--------------------------------------------------------------------------------

                           -------------------------------
                                      Unit Cell
                           -------------------------------
        Real Lattice(A)              Reciprocal Lattice(1/A)
     2.3911349     1.3805190     4.3897205        1.313849169   0.758552391   0.477114362
    -2.3911423     1.3805252     4.3897225       -1.313846805   0.758549007   0.477113211
     0.0000016    -2.7610516     4.3897236       -0.000001748  -1.517100687   0.477112507

                       Lattice parameters(A)       Cell Angles
                    a =      5.185847          alpha =   54.914835
                    b =      5.185853          beta  =   54.914741
                    c =      5.185854          gamma =   54.914808

                Current cell volume =            86.943512 A**3
                            density =             2.345460 amu/A**3
                                    =             3.894728 g/cm^3

                           -------------------------------
                                     Cell Contents
                           -------------------------------

            xxxxxxxxxxxxxxxxxxxxxxxxxxxxxxxxxxxxxxxxxxxxxxxxxxxxxxxxxxxxxxxxx
            x  Element         Atom        Fractional coordinates of atoms  x
            x                 Number           u          v          w      x
            x---------------------------------------------------------------x
            x  O                 1         0.561481   0.938520   0.250000   x
            x  O                 2         0.938520   0.250000   0.561480   x
            x  O                 3         0.250000   0.561481   0.938519   x
            x  O                 4         0.061480   0.749999   0.438520   x
            x  O                 5         0.750000   0.438519   0.061480   x
            x  O                 6         0.438520   0.061480   0.750000   x
            x  Al                1         0.147563   0.147564   0.147563   x
            x  Al                2         0.647563   0.647564   0.647563   x
            x  Al                3         0.852437   0.852437   0.852436   x
            x  Al                4         0.352437   0.352437   0.352437   x
            xxxxxxxxxxxxxxxxxxxxxxxxxxxxxxxxxxxxxxxxxxxxxxxxxxxxxxxxxxxxxxxxx


------------------------------------------------------------------------ <-- SCF
SCF loop      Energy           Fermi           Energy gain       Timer   <-- SCF
                               energy          per atom          (sec)   <-- SCF
------------------------------------------------------------------------ <-- SCF
Initial  -3.08546998E+003  0.00000000E+000                        16.78  <-- SCF
      1  -3.08547707E+003  9.16804448E+000   7.08496468E-004      16.82  <-- SCF
      2  -3.08547709E+003  9.16804418E+000   2.05283251E-006      16.87  <-- SCF
      3  -3.08547554E+003  9.14992254E+000  -1.54671896E-004      16.93  <-- SCF
      4  -3.08547508E+003  9.15800057E+000  -4.59720104E-005      16.98  <-- SCF
      5  -3.08547508E+003  9.15733625E+000  -1.99897319E-007      17.04  <-- SCF
      6  -3.08547508E+003  9.15679394E+000  -1.20321562E-008      17.08  <-- SCF
------------------------------------------------------------------------ <-- SCF
 
Final energy, E             =  -3085.475078096     eV
Final free energy (E-TS)    =  -3085.475078096     eV
(energies not corrected for finite basis set)
 
NB est. 0K energy (E-0.5TS)      =  -3085.475078096     eV
 

 ************************************** Forces **************************************
 *                                                                                  *
 *                           Cartesian components (eV/A)                            *
 * -------------------------------------------------------------------------------- *
 *                         x                    y                    z              *
 *                                                                                  *
 * O               1      0.01865             -0.00008             -0.00014         *
 * O               2     -0.00933             -0.01620             -0.00002         *
 * O               3     -0.00932              0.01604              0.00007         *
 * O               4      0.00930              0.01624              0.00003         *
 * O               5      0.00932             -0.01606             -0.00004         *
 * O               6     -0.01864              0.00007              0.00014         *
 * Al              1     -0.00000             -0.00001              0.05152         *
 * Al              2     -0.00002              0.00002              0.05152         *
 * Al              3      0.00002             -0.00001             -0.05154         *
 * Al              4      0.00003             -0.00002             -0.05154         *
 *                                                                                  *
 ************************************************************************************

 ***************** Stress Tensor *****************
 *                                               *
 *          Cartesian components (GPa)           *
 * --------------------------------------------- *
 *             x             y             z     *
 *                                               *
 *  x     -0.110179     -0.000434      0.000093  *
 *  y     -0.000434     -0.109435     -0.000237  *
 *  z      0.000093     -0.000237      0.621243  *
 *                                               *
 *  Pressure:   -0.1339                          *
 *                                               *
 *************************************************
  
 +------------+-------------+-------------+-----------------+ <-- min LBFGS
 |    Step    |   lambda    |   F.delta'  |    enthalpy     | <-- min LBFGS
 +------------+-------------+-------------+-----------------+ <-- min LBFGS
 |  previous  |    0.000000 |    0.032083 |    -3085.308332 | <-- min LBFGS
 | trial step |    1.000000 |    0.015219 |    -3085.309033 | <-- min LBFGS
 +------------+-------------+-------------+-----------------+ <-- min LBFGS
  

--------------------------------------------------------------------------------
 LBFGS: improving iteration         4 with line minimization (lambda=  1.902483)
--------------------------------------------------------------------------------

                           -------------------------------
                                      Unit Cell
                           -------------------------------
        Real Lattice(A)              Reciprocal Lattice(1/A)
     2.3909788     1.3804300     4.3858194        1.313936559   0.758601300   0.477537887
    -2.3909742     1.3804279     4.3858175       -1.313937616   0.758602463   0.477538892
     0.0000005    -2.7608654     4.3858206        0.000000479  -1.517203028   0.477537075

                       Lattice parameters(A)       Cell Angles
                    a =      5.182449          alpha =   54.949853
                    b =      5.182445          beta  =   54.949873
                    c =      5.182451          gamma =   54.949870

                Current cell volume =            86.854458 A**3
                            density =             2.347865 amu/A**3
                                    =             3.898722 g/cm^3

                           -------------------------------
                                     Cell Contents
                           -------------------------------

            xxxxxxxxxxxxxxxxxxxxxxxxxxxxxxxxxxxxxxxxxxxxxxxxxxxxxxxxxxxxxxxxx
            x  Element         Atom        Fractional coordinates of atoms  x
            x                 Number           u          v          w      x
            x---------------------------------------------------------------x
            x  O                 1         0.561597   0.938404   0.250000   x
            x  O                 2         0.938403   0.250000   0.561596   x
            x  O                 3         0.250000   0.561598   0.938403   x
            x  O                 4         0.061597   0.749999   0.438404   x
            x  O                 5         0.750000   0.438402   0.061597   x
            x  O                 6         0.438403   0.061597   0.750000   x
            x  Al                1         0.147585   0.147585   0.147585   x
            x  Al                2         0.647585   0.647585   0.647585   x
            x  Al                3         0.852416   0.852416   0.852415   x
            x  Al                4         0.352415   0.352415   0.352415   x
            xxxxxxxxxxxxxxxxxxxxxxxxxxxxxxxxxxxxxxxxxxxxxxxxxxxxxxxxxxxxxxxxx


------------------------------------------------------------------------ <-- SCF
SCF loop      Energy           Fermi           Energy gain       Timer   <-- SCF
                               energy          per atom          (sec)   <-- SCF
------------------------------------------------------------------------ <-- SCF
Initial  -3.08537614E+003  0.00000000E+000                        17.68  <-- SCF
      1  -3.08538559E+003  9.17994960E+000   9.45399295E-004      17.72  <-- SCF
      2  -3.08538566E+003  9.17994935E+000   6.59133859E-006      17.77  <-- SCF
      3  -3.08538480E+003  9.17844815E+000  -8.59339574E-005      17.82  <-- SCF
      4  -3.08538479E+003  9.17844339E+000  -5.66008400E-007      17.87  <-- SCF
      5  -3.08538479E+003  9.17809613E+000   6.91854393E-008      17.91  <-- SCF
------------------------------------------------------------------------ <-- SCF
 
Final energy, E             =  -3085.384794253     eV
Final free energy (E-TS)    =  -3085.384794253     eV
(energies not corrected for finite basis set)
 
NB est. 0K energy (E-0.5TS)      =  -3085.384794253     eV
 

 ************************************** Forces **************************************
 *                                                                                  *
 *                           Cartesian components (eV/A)                            *
 * -------------------------------------------------------------------------------- *
 *                         x                    y                    z              *
 *                                                                                  *
 * O               1      0.04489             -0.00002             -0.00009         *
 * O               2     -0.02239             -0.03888             -0.00004         *
 * O               3     -0.02242              0.03884             -0.00004         *
 * O               4      0.02236              0.03890              0.00006         *
 * O               5      0.02242             -0.03884              0.00006         *
 * O               6     -0.04488              0.00001              0.00010         *
 * Al              1      0.00002              0.00000              0.04436         *
 * Al              2      0.00000             -0.00001              0.04437         *
 * Al              3     -0.00001             -0.00002             -0.04438         *
 * Al              4      0.00001              0.00001             -0.04439         *
 *                                                                                  *
 ************************************************************************************

 ***************** Stress Tensor *****************
 *                                               *
 *          Cartesian components (GPa)           *
 * --------------------------------------------- *
 *             x             y             z     *
 *                                               *
 *  x      0.871509      0.000596      0.000100  *
 *  y      0.000596      0.871694     -0.000111  *
 *  z      0.000100     -0.000111      0.898537  *
 *                                               *
 *  Pressure:   -0.8806                          *
 *                                               *
 *************************************************
  
 +------------+-------------+-------------+-----------------+ <-- min LBFGS
[...]
 *  z      0.008393     -0.161313      0.083714  *
 *                                               *
 *  Pressure:   -0.0611                          *
 *                                               *
 *************************************************
  
 +------------+-------------+-------------+-----------------+ <-- min LBFGS
 |    Step    |   lambda    |   F.delta'  |    enthalpy     | <-- min LBFGS
 +------------+-------------+-------------+-----------------+ <-- min LBFGS
 |  previous  |    0.000000 |    0.002430 |    -3085.328826 | <-- min LBFGS
 | trial step |    1.000000 |    0.001621 |    -3085.328834 | <-- min LBFGS
 |  line step |    3.002695 |   -0.003659 |    -3085.328805 | <-- min LBFGS
 +------------+-------------+-------------+-----------------+ <-- min LBFGS
  

--------------------------------------------------------------------------------
 LBFGS: improving iteration        14 with quad minimization (lambda=  1.614749)
--------------------------------------------------------------------------------

                           -------------------------------
                                      Unit Cell
                           -------------------------------
        Real Lattice(A)              Reciprocal Lattice(1/A)
     2.3874868     1.3775033     4.3634819        1.315872816   0.759883772   0.480078519
    -2.3874165     1.3775015     4.3634434       -1.315881103   0.759884720   0.480099424
     0.0000337    -2.7572545     4.3641791       -0.000003322  -1.519518971   0.479697254

                       Lattice parameters(A)       Cell Angles
                    a =      5.161161          alpha =   55.097037
                    b =      5.161095          beta  =   55.096695
                    c =      5.162220          gamma =   55.107857

                Current cell volume =            86.152838 A**3
                            density =             2.366986 amu/A**3
                                    =             3.930473 g/cm^3

                           -------------------------------
                                     Cell Contents
                           -------------------------------

            xxxxxxxxxxxxxxxxxxxxxxxxxxxxxxxxxxxxxxxxxxxxxxxxxxxxxxxxxxxxxxxxx
            x  Element         Atom        Fractional coordinates of atoms  x
            x                 Number           u          v          w      x
            x---------------------------------------------------------------x
            x  O                 1         0.561706   0.938298   0.249997   x
            x  O                 2         0.938297   0.249987   0.561707   x
            x  O                 3         0.250016   0.561698   0.938297   x
            x  O                 4         0.061703   0.750013   0.438292   x
            x  O                 5         0.749984   0.438302   0.061702   x
            x  O                 6         0.438294   0.061702   0.750003   x
            x  Al                1         0.147759   0.147763   0.147761   x
            x  Al                2         0.647763   0.647760   0.647761   x
            x  Al                3         0.852241   0.852237   0.852239   x
            x  Al                4         0.352237   0.352240   0.352239   x
            xxxxxxxxxxxxxxxxxxxxxxxxxxxxxxxxxxxxxxxxxxxxxxxxxxxxxxxxxxxxxxxxx


------------------------------------------------------------------------ <-- SCF
SCF loop      Energy           Fermi           Energy gain       Timer   <-- SCF
                               energy          per atom          (sec)   <-- SCF
------------------------------------------------------------------------ <-- SCF
Initial  -3.08531396E+003  0.00000000E+000                        39.73  <-- SCF
      1  -3.08531478E+003  9.35791895E+000   8.17636634E-005      39.76  <-- SCF
      2  -3.08531479E+003  9.35791891E+000   1.18758834E-006      39.81  <-- SCF
      3  -3.08531459E+003  9.35572221E+000  -1.97736142E-005      39.86  <-- SCF
      4  -3.08531459E+003  9.35673008E+000  -5.15392965E-007      39.91  <-- SCF
      5  -3.08531459E+003  9.35645896E+000  -5.09237483E-009      39.95  <-- SCF
------------------------------------------------------------------------ <-- SCF
 
Final energy, E             =  -3085.314588770     eV
Final free energy (E-TS)    =  -3085.314588770     eV
(energies not corrected for finite basis set)
 
NB est. 0K energy (E-0.5TS)      =  -3085.314588770     eV
 

 ************************************** Forces **************************************
 *                                                                                  *
 *                           Cartesian components (eV/A)                            *
 * -------------------------------------------------------------------------------- *
 *                         x                    y                    z              *
 *                                                                                  *
 * O               1     -0.00042             -0.00058              0.00043         *
 * O               2     -0.00254              0.00426              0.00306         *
 * O               3     -0.00348             -0.00386             -0.00332         *
 * O               4      0.00253             -0.00429             -0.00303         *
 * O               5      0.00351              0.00386              0.00332         *
 * O               6      0.00040              0.00061             -0.00049         *
 * Al              1     -0.00047              0.00377              0.00068         *
 * Al              2      0.00010              0.00368              0.00067         *
 * Al              3      0.00047             -0.00377             -0.00067         *
 * Al              4     -0.00010             -0.00368             -0.00066         *
 *                                                                                  *
 ************************************************************************************

 ***************** Stress Tensor *****************
 *                                               *
 *          Cartesian components (GPa)           *
 * --------------------------------------------- *
 *             x             y             z     *
 *                                               *
 *  x      0.073225     -0.000161      0.004335  *
 *  y     -0.000161     -0.000204     -0.090437  *
 *  z      0.004335     -0.090437      0.031184  *
 *                                               *
 *  Pressure:   -0.0347                          *
 *                                               *
 *************************************************
  
 +------------+-------------+-------------+-----------------+ <-- min LBFGS
 |    Step    |   lambda    |   F.delta'  |    enthalpy     | <-- min LBFGS
 +------------+-------------+-------------+-----------------+ <-- min LBFGS
 |  previous  |    0.000000 |    0.002430 |    -3085.328826 | <-- min LBFGS
 | trial step |    1.000000 |    0.001621 |    -3085.328834 | <-- min LBFGS
 |  line step |    3.002695 |   -0.003659 |    -3085.328805 | <-- min LBFGS
 |  quad step |    1.614749 |   -0.002289 |    -3085.328832 | <-- min LBFGS
 +------------+-------------+-------------+-----------------+ <-- min LBFGS
  
 LBFGS: finished iteration    14 with enthalpy= -3.08532883E+003 eV
  
 +-----------+-----------------+-----------------+------------+-----+ <-- LBFGS
 | Parameter |      value      |    tolerance    |    units   | OK? | <-- LBFGS
 +-----------+-----------------+-----------------+------------+-----+ <-- LBFGS
 |  dE/ion   |   6.002474E-007 |   1.000000E-005 |         eV | Yes | <-- LBFGS
 |  |F|max   |   6.185665E-003 |   1.000000E-002 |       eV/A | Yes | <-- LBFGS
 |  |dR|max  |   2.883452E-004 |   1.000000E-003 |          A | Yes | <-- LBFGS
 |   Smax    |   9.043674E-002 |   1.000000E-001 |        GPa | Yes | <-- LBFGS
 +-----------+-----------------+-----------------+------------+-----+ <-- LBFGS
  
 LBFGS: Geometry optimization completed successfully.

================================================================================
 LBFGS: Final Configuration:
================================================================================

                           -------------------------------
                                      Unit Cell
                           -------------------------------
        Real Lattice(A)              Reciprocal Lattice(1/A)
     2.3874868     1.3775033     4.3634819        1.315872816   0.759883772   0.480078519
    -2.3874165     1.3775015     4.3634434       -1.315881103   0.759884720   0.480099424
     0.0000337    -2.7572545     4.3641791       -0.000003322  -1.519518971   0.479697254

                       Lattice parameters(A)       Cell Angles
                    a =      5.161161          alpha =   55.097037
                    b =      5.161095          beta  =   55.096695
                    c =      5.162220          gamma =   55.107857

                Current cell volume =            86.152838 A**3
                            density =             2.366986 amu/A**3
                                    =             3.930473 g/cm^3

                           -------------------------------
                                     Cell Contents
                           -------------------------------

            xxxxxxxxxxxxxxxxxxxxxxxxxxxxxxxxxxxxxxxxxxxxxxxxxxxxxxxxxxxxxxxxx
            x  Element         Atom        Fractional coordinates of atoms  x
            x                 Number           u          v          w      x
            x---------------------------------------------------------------x
            x  O                 1         0.561706   0.938298   0.249997   x
            x  O                 2         0.938297   0.249987   0.561707   x
            x  O                 3         0.250016   0.561698   0.938297   x
            x  O                 4         0.061703   0.750013   0.438292   x
            x  O                 5         0.749984   0.438302   0.061702   x
            x  O                 6         0.438294   0.061702   0.750003   x
            x  Al                1         0.147759   0.147763   0.147761   x
            x  Al                2         0.647763   0.647760   0.647761   x
            x  Al                3         0.852241   0.852237   0.852239   x
            x  Al                4         0.352237   0.352240   0.352239   x
            xxxxxxxxxxxxxxxxxxxxxxxxxxxxxxxxxxxxxxxxxxxxxxxxxxxxxxxxxxxxxxxxx


 LBFGS: Final Enthalpy     = -3.08532883E+003 eV
 LBFGS: Final <frequency>  =     929.21848 cm-1
 LBFGS: Final bulk modulus =     416.22245 GPa

 ************************************** Forces **************************************
 *                                                                                  *
 *                           Cartesian components (eV/A)                            *
 * -------------------------------------------------------------------------------- *
 *                         x                    y                    z              *
 *                                                                                  *
 * O               1     -0.00042             -0.00058              0.00043         *
 * O               2     -0.00254              0.00426              0.00306         *
 * O               3     -0.00348             -0.00386             -0.00332         *
 * O               4      0.00253             -0.00429             -0.00303         *
 * O               5      0.00351              0.00386              0.00332         *
 * O               6      0.00040              0.00061             -0.00049         *
 * Al              1     -0.00047              0.00377              0.00068         *
 * Al              2      0.00010              0.00368              0.00067         *
 * Al              3      0.00047             -0.00377             -0.00067         *
 * Al              4     -0.00010             -0.00368             -0.00066         *
 *                                                                                  *
 ************************************************************************************

 ***************** Stress Tensor *****************
 *                                               *
 *          Cartesian components (GPa)           *
 * --------------------------------------------- *
 *             x             y             z     *
 *                                               *
 *  x      0.073225     -0.000161      0.004335  *
 *  y     -0.000161     -0.000204     -0.090437  *
 *  z      0.004335     -0.090437      0.031184  *
 *                                               *
 *  Pressure:   -0.0347                          *
 *                                               *
 *************************************************

 Pseudo atomic calculation performed for O 2s2 2p4

 Converged in 21 iterations to a total energy of -430.8269 eV

 Pseudo atomic calculation performed for Al 3s2 3p1

 Converged in 11 iterations to a total energy of -105.9168 eV
Charge spilling parameter for spin component 1 = 0.71%

            Orbital Populations       
     Ion    Atom   Orbital             Charge
  -------------------------------------------
      O     1      S                    1.800
      O     1      Px                   1.711
      O     1      Py                   1.734
      O     1      Pz                   1.771
      O     2      S                    1.800
      O     2      Px                   1.729
      O     2      Py                   1.717
      O     2      Pz                   1.771
      O     3      S                    1.800
      O     3      Px                   1.729
      O     3      Py                   1.717
      O     3      Pz                   1.771
      O     4      S                    1.800
      O     4      Px                   1.729
      O     4      Py                   1.717
      O     4      Pz                   1.771
      O     5      S                    1.800
      O     5      Px                   1.729
      O     5      Py                   1.717
      O     5      Pz                   1.771
      O     6      S                    1.800
      O     6      Px                   1.711
      O     6      Py                   1.734
      O     6      Pz                   1.771
     Al     1      S                    0.479
     Al     1      Px                   0.333
     Al     1      Py                   0.333
     Al     1      Pz                   0.330
     Al     2      S                    0.479
     Al     2      Px                   0.333
     Al     2      Py                   0.333
     Al     2      Pz                   0.330
     Al     3      S                    0.479
     Al     3      Px                   0.333
     Al     3      Py                   0.333
     Al     3      Pz                   0.330
     Al     4      S                    0.479
     Al     4      Px                   0.333
     Al     4      Py                   0.333
     Al     4      Pz                   0.330
  -------------------------------------------
                           Total:      48.000
  -------------------------------------------

     Atomic Populations (Mulliken)
     -----------------------------
Species          Ion     s      p      d      f     Total  Charge (e)
=====================================================================
  O               1     1.80   5.22   0.00   0.00   7.02    -1.02
  O               2     1.80   5.22   0.00   0.00   7.02    -1.02
  O               3     1.80   5.22   0.00   0.00   7.02    -1.02
  O               4     1.80   5.22   0.00   0.00   7.02    -1.02
  O               5     1.80   5.22   0.00   0.00   7.02    -1.02
  O               6     1.80   5.22   0.00   0.00   7.02    -1.02
  Al              1     0.48   1.00   0.00   0.00   1.48     1.52
  Al              2     0.48   1.00   0.00   0.00   1.48     1.52
  Al              3     0.48   1.00   0.00   0.00   1.48     1.52
  Al              4     0.48   1.00   0.00   0.00   1.48     1.52
=====================================================================

                 Bond                   Population      Length (A)
======================================================================
               O 2 -- Al 3                   0.35        1.84884
               O 4 -- Al 1                   0.35        1.84884
               O 5 -- Al 4                   0.35        1.84886
               O 3 -- Al 2                   0.35        1.84886
               O 4 -- Al 4                   0.35        1.84929
               O 2 -- Al 2                   0.35        1.84929
               O 5 -- Al 1                   0.35        1.84933
               O 3 -- Al 3                   0.35        1.84933
               O 6 -- Al 1                   0.35        1.84935
               O 1 -- Al 3                   0.35        1.84935
               O 1 -- Al 2                   0.35        1.84938
               O 6 -- Al 4                   0.35        1.84938
               O 3 -- Al 1                   0.29        2.00126
               O 5 -- Al 3                   0.29        2.00127
               O 4 -- Al 2                   0.29        2.00129
               O 2 -- Al 4                   0.29        2.00129
               O 1 -- Al 4                   0.29        2.00163
               O 6 -- Al 2                   0.29        2.00163
               O 6 -- Al 3                   0.29        2.00167
               O 1 -- Al 1                   0.29        2.00167
               O 5 -- Al 2                   0.29        2.00181
               O 3 -- Al 4                   0.29        2.00181
               O 2 -- Al 1                   0.29        2.00182
               O 4 -- Al 3                   0.29        2.00182
               O 2 -- O 3                   -0.13        2.57768
               O 4 -- O 5                   -0.13        2.57768
               O 1 -- O 3                   -0.13        2.57779
               O 5 -- O 6                   -0.13        2.57779
               O 4 -- O 6                   -0.13        2.57783
               O 1 -- O 2                   -0.13        2.57783
               O 2 -- O 4                   -0.15        2.64691
               O 3 -- O 5                   -0.15        2.64694
               O 1 -- O 6                   -0.15        2.64751
              Al 1 -- Al 4                  -0.26        2.67684
              Al 2 -- Al 3                  -0.26        2.67684
               O 1 -- O 5                   -0.10        2.73238
               O 3 -- O 6                   -0.10        2.73238
               O 2 -- O 6                   -0.10        2.73241
               O 1 -- O 4                   -0.10        2.73241
               O 2 -- O 5                   -0.10        2.73323
               O 3 -- O 4                   -0.10        2.73323
              Al 1 -- Al 3                  -0.44        2.80070
              Al 2 -- Al 4                  -0.44        2.80072
======================================================================


Writing analysis data to al2o3_xc-PBESOL_c-0600_k-1x1x1_geom.castep_bin

Writing model to al2o3_xc-PBESOL_c-0600_k-1x1x1_geom.check
 
 A BibTeX formatted list of references used in this run has been written to 
 al2o3_xc-PBESOL_c-0600_k-1x1x1_geom.bib
 
Initialisation time =      6.96 s
Calculation time    =     34.14 s
Finalisation time   =      0.06 s
Total time          =     41.16 s
Peak Memory Use     = 569888 kB
  
Overall parallel efficiency rating: Good (73%)                                  
  
Data was distributed by:-
G-vector (9-way); efficiency rating: Good (74%)                                 
  
Parallel notes:
1) Calculation only took 41.1 s, so efficiency estimates may be inaccurate.     
