 +-------------------------------------------------+
 |                                                 |
 |      CCC   AA    SSS  TTTTT  EEEEE  PPPP        |
 |     C     A  A  S       T    E      P   P       |
 |     C     AAAA   SS     T    EEE    PPPP        |
 |     C     A  A     S    T    E      P           |
 |      CCC  A  A  SSS     T    EEEEE  P           |
 |                                                 |
 +-------------------------------------------------+
 |                                                 |
 | Welcome to Academic Release CASTEP version 19.11|          
 | Ab Initio Total Energy Program                  |
 |                                                 |
 | Authors:                                        |
 | M. Segall, M. Probert, C. Pickard, P. Hasnip,   |
 | S. Clark, K. Refson, J. R. Yates, M. Payne      |
 |                                                 |
 | Contributors:                                   |
 | P. Lindan, P. Haynes, J. White, V. Milman,      |
 | N. Govind, M. Gibson, P. Tulip, V. Cocula,      |
 | B. Montanari, D. Quigley, M. Glover,            |
 | L. Bernasconi, A. Perlov, M. Plummer,           |
 | E. McNellis, J. Meyer, J. Gale, D. Jochym       |
 | J. Aarons, B. Walker, R. Gillen, D. Jones       |
 | T. Green, I. J. Bush, C. J. Armstrong,          |
 | E. J. Higgins, E. L. Brown, M. S. McFly,        |
 | J. Wilkins, B-C. Shih, P. J. P. Byrne           |
 |                                                 |
 | Copyright (c) 2000 - 2018                       |
 |                                                 |
 |     Distributed under the terms of an           |
 |     Agreement between the United Kingdom        |
 |     Car-Parrinello (UKCP) Consortium,           |
 |     Daresbury Laboratory and Accelrys, Inc.     |
 |                                                 |
 | Please cite                                     |
 |                                                 |
 |     "First principles methods using CASTEP"     |
 |                                                 |
 |         Zeitschrift fuer Kristallographie       |
 |           220(5-6) pp. 567-570 (2005)           |
 |                                                 |
 | S. J. Clark, M. D. Segall, C. J. Pickard,       |
 | P. J. Hasnip, M. J. Probert, K. Refson,         |
 | M. C. Payne                                     |
 |                                                 |
 |       in all publications arising from          |
 |              your use of CASTEP                 |
 |                                                 |
 +-------------------------------------------------+
 |                                                 |
 |              http://www.castep.org              |
 |                                                 |
 +-------------------------------------------------+



 Compiled for linux_x86_64_gfortran7.0 on Fri, 31 Jan 2020 20:20:28 +0100
 from code version e1fe0d666396+ Castep191_branch Thu, 24 Oct 2019 13:54:03 +0100
 Compiler: GNU Fortran 7.4.0; Optimisation: fast
 MATHLIBS: default (LAPACK version 3.7.1)
 FFT Lib : default
 Fundamental constants values: CODATA 2014

 Run started: Mon, 08 Nov 2021 12:02:40 +0100

 Atomic calculation performed for O: 1s2 2s2 2p4

 Converged in 57 iterations to an ae energy of -2034.019 eV

   ============================================================                
   | Pseudopotential Report - Date of generation  8-11-2021   |                
   ------------------------------------------------------------                
   | Element: O Ionic charge:  6.00 Level of theory: PBESOL   |                
   | Atomic Solver: Koelling-Harmon                           |                
   |                                                          |                
   |               Reference Electronic Structure             |                
   |         Orbital         Occupation         Energy        |                
   |            2s              2.000           -0.875        |                
   |            2p              4.000           -0.330        |                
   |                                                          |                
   |                 Pseudopotential Definition               |                
   |        Beta     l      e      Rc     scheme   norm       |                
   |          1      0   -0.875   1.100     qc      0         |                
   |          2      0    0.250   1.100     qc      0         |                
   |          3      1   -0.330   1.100     qc      0         |                
   |          4      1    0.250   1.100     qc      0         |                
   |         loc     2    0.000   1.100     pn      0         |                
   |                                                          |                
   | Augmentation charge Rinner = 0.769                       |                
   | Partial core correction Rc = 0.769                       |                
   ------------------------------------------------------------                
   | "2|1.1|17|20|23|20:21(qc=8)"                             |                
   ------------------------------------------------------------                
   |      Author: Chris J. Pickard, Cambridge University      |                
   ============================================================                

 Atomic calculation performed for Al: 1s2 2s2 2p6 3s2 3p1

 Converged in 55 iterations to an ae energy of -6590.489 eV

   ============================================================                
   | Pseudopotential Report - Date of generation  8-11-2021   |                
   ------------------------------------------------------------                
   | Element: Al Ionic charge:  3.00 Level of theory: PBESOL  |                
   | Atomic Solver: Koelling-Harmon                           |                
   |                                                          |                
   |               Reference Electronic Structure             |                
   |         Orbital         Occupation         Energy        |                
   |            3s              2.000           -0.284        |                
   |            3p              1.000           -0.099        |                
   |                                                          |                
   |                 Pseudopotential Definition               |                
   |        Beta     l      e      Rc     scheme   norm       |                
   |          1      0   -0.284   2.192     qc      0         |                
   |          2      0    0.250   2.192     qc      0         |                
   |          3      1   -0.099   2.192     qc      0         |                
   |          4      1    0.250   2.192     qc      0         |                
   |          5      2    0.000   2.000     qc      0         |                
   |          6      2    0.250   2.000     qc      0         |                
   |         loc     3    0.000   2.192     pn      0         |                
   |                                                          |                
   | Augmentation charge Rinner = 1.398                       |                
   | Partial core correction Rc = 1.398                       |                
   ------------------------------------------------------------                
   | "3|2.2|2.2|1.4|4|5|5|30:31:32U2U2"                       |                
   ------------------------------------------------------------                
   |      Author: Chris J. Pickard, Cambridge University      |                
   ============================================================                

 Pseudo atomic calculation performed for O 2s2 2p4

 Converged in 14 iterations to a total energy of -431.1322 eV

 Pseudo atomic calculation performed for Al 3s2 3p1

 Converged in 11 iterations to a total energy of -105.9172 eV
 Calculation parallelised over 9 processes.
 Data is distributed by k-point(9-way)

 ************************************ Title ************************************
 

 ***************************** General Parameters ******************************
  
 output verbosity                               : normal  (1)
 write checkpoint data to                       : al2o3_xc-PBESOL_c-1000_k-5x5x5_geom.check
 type of calculation                            : geometry optimization
 stress calculation                             : off
 density difference calculation                 : off
 electron localisation func (ELF) calculation   : off
 Hirshfeld analysis                             : off
 unlimited duration calculation
 timing information                             : on
 memory usage estimate                          : on
 write extra output files                       : on
 write final potential to formatted file        : off
 write final density to formatted file          : off
 write structure in CIF formatted file          : on
 write structure in CELL formatted file         : on
 write BibTeX reference list                    : on
 write OTFG pseudopotential files               : on
 write electrostatic potential file             : on
 write bands file                               : on
 checkpoint writing                             : both castep_bin and check files
  
 output         length unit                     : A
 output           mass unit                     : amu
 output           time unit                     : ps
 output         charge unit                     : e
 output           spin unit                     : hbar/2
 output         energy unit                     : eV
 output          force unit                     : eV/A
 output       velocity unit                     : A/ps
 output       pressure unit                     : GPa
 output     inv_length unit                     : 1/A
 output      frequency unit                     : cm-1
 output force constant unit                     : eV/A**2
 output         volume unit                     : A**3
 output   IR intensity unit                     : (D/A)**2/amu
 output         dipole unit                     : D
 output         efield unit                     : eV/A/e
 output        entropy unit                     : J/mol/K
  
 wavefunctions paging                           : none
 random number generator seed                   : randomised (120240587)
 data distribution                              : optimal for this architecture
 optimization strategy                          : maximize speed(+++)

 *********************** Exchange-Correlation Parameters ***********************
  
 using functional                               : PBE for solids (2008)
 relativistic treatment                         : Koelling-Harmon
 DFT+D: Semi-empirical dispersion correction    : off

 ************************* Pseudopotential Parameters **************************
  
 pseudopotential representation                 : reciprocal space
 <beta|phi> representation                      : reciprocal space
 spin-orbit coupling                            : off

 **************************** Basis Set Parameters *****************************
  
 plane wave basis set cut-off                   :  1000.0000   eV
 size of standard grid                          :     1.7500
 size of   fine   gmax                          :    28.3515   1/A
 finite basis set correction                    : automatic
 number of sample energies                      :          3
           sample  spacing                      :     5.0000   eV

 **************************** Electronic Parameters ****************************
  
 number of  electrons                           :  48.00    
 net charge of system                           :  0.000    
 treating system as non-spin-polarized
 number of bands                                :         29

 ********************* Electronic Minimization Parameters **********************
  
 Method: Treating system as metallic with density mixing treatment of electrons,
         and number of  SD  steps               :          1
         and number of  CG  steps               :          4
  
 total energy / atom convergence tol.           : 0.1000E-04   eV
 eigen-energy convergence tolerance             : 0.1000E-05   eV
 max force / atom convergence tol.              : ignored
 convergence tolerance window                   :          3   cycles
 max. number of SCF cycles                      :         30
 number of fixed-spin iterations                :         10
 smearing scheme                                : Gaussian
 smearing width                                 : 0.2000       eV
 Fermi energy convergence tolerance             : 0.2721E-13   eV
 periodic dipole correction                     : NONE

 ************************** Density Mixing Parameters **************************
  
 density-mixing scheme                          : Broyden
 max. length of mixing history                  :         20
 charge density mixing amplitude                : 0.8000    
 cut-off energy for mixing                      :  1000.       eV

 *********************** Population Analysis Parameters ************************
  
 Population analysis with cutoff                :  3.000       A
 Population analysis output                     : summary and pdos components

 ********************** Geometry Optimization Parameters ***********************
  
 optimization method                            : LBFGS
 max. no. of LBFGS updates                      : unbounded
 variable cell method                           : fixed basis quality
 max. number of steps                           :        150
 estimated bulk modulus                         :  500.0       GPa
 estimated <frequency>                          :  1668.       cm-1
 geom line minimiser                            : on
 with line minimiser tolerance                  :     0.4000
 total energy convergence tolerance             : 0.1000E-04   eV/atom
        max ionic |force| tolerance             : 0.1000E-01   eV/A
 max ionic |displacement| tolerance             : 0.1000E-02   A
   max |stress component| tolerance             : 0.1000       GPa
 convergence tolerance window                   :          2   steps
 backup results every                           :          5   steps
 write geom trajectory file                     : on

 *******************************************************************************
  

                           -------------------------------
                                      Unit Cell
                           -------------------------------
        Real Lattice(A)                      Reciprocal Lattice(1/A)
     2.3801000     1.3741510     4.3310000        1.319941454   0.762068577   0.483582396
    -2.3801000     1.3741510     4.3310000       -1.319941454   0.762068577   0.483582396
     0.0000000    -2.7483030     4.3310000       -0.000000000  -1.524137154   0.483582220

                       Lattice parameters(A)       Cell Angles
                    a =      5.129398          alpha =   55.292535
                    b =      5.129398          beta  =   55.292535
                    c =      5.129399          gamma =   55.292537

                       Current cell volume =            84.990269       A**3
                                   density =             2.399364   AMU/A**3
                                           =             3.984237     g/cm^3

                           -------------------------------
                                     Cell Contents
                           -------------------------------
                         Total number of ions in cell =   10
                      Total number of species in cell =    2
                        Max number of any one species =    6

            xxxxxxxxxxxxxxxxxxxxxxxxxxxxxxxxxxxxxxxxxxxxxxxxxxxxxxxxxxxx
            x  Element    Atom        Fractional coordinates of atoms  x
            x            Number           u          v          w      x
            x----------------------------------------------------------x
            x  O            1         0.556260   0.943740   0.250000   x 
            x  O            2         0.943740   0.250000   0.556260   x 
            x  O            3         0.250000   0.556260   0.943740   x 
            x  O            4         0.056260   0.750000   0.443740   x 
            x  O            5         0.750000   0.443740   0.056260   x 
            x  O            6         0.443740   0.056260   0.750000   x 
            x  Al           1         0.147900   0.147900   0.147900   x 
            x  Al           2         0.647900   0.647900   0.647900   x 
            x  Al           3         0.852100   0.852100   0.852100   x 
            x  Al           4         0.352100   0.352100   0.352100   x 
            xxxxxxxxxxxxxxxxxxxxxxxxxxxxxxxxxxxxxxxxxxxxxxxxxxxxxxxxxxxx


                         No user defined ionic velocities

                           -------------------------------
                                   Details of Species
                           -------------------------------

                               Mass of species in AMU
                                    O   15.9994000
                                    Al   26.9815400

                          Electric Quadrupole Moment (Barn)
                                    O   -0.0255800 Isotope 17
                                    Al    0.1466000 Isotope 27

                          Files used for pseudopotentials:
                                    O 2|1.1|17|20|23|20:21(qc=8)
                                    Al 3|2.2|2.2|1.4|4|5|5|30:31:32U2U2

                           -------------------------------
                              k-Points For BZ Sampling
                           -------------------------------
                       MP grid size for SCF calculation is  5  5  5
                            with an offset of   0.000  0.000  0.000
                       Number of kpoints used =            63

                           -------------------------------
                               Symmetry and Constraints
                           -------------------------------

                      Maximum deviation from symmetry =  0.00000         ANG

                      Number of symmetry operations   =           1
                      Number of ionic constraints     =           3
                      Point group of crystal =     1: C1, 1, 1
                      Space group of crystal =   167: R-3c, -R 3 2"c

             Set iprint > 1 for details on symmetry rotations/translations

                         Centre of mass is constrained
             Set iprint > 1 for details of linear ionic constraints

                         Number of cell constraints= 0
                         Cell constraints are:  1 2 3 4 5 6

                         External pressure/stress (GPa)
                          0.00000   0.00000   0.00000
                                    0.00000   0.00000
                                              0.00000
  
+---------------- MEMORY AND SCRATCH DISK ESTIMATES PER PROCESS --------------+
|                                                     Memory          Disk    |
| Baseline code, static data and system overhead      196.0 MB         0.0 MB |
| BLAS internal memory storage                          0.0 MB         0.0 MB |
| Model and support data                              262.3 MB         0.0 MB |
| Electronic energy minimisation requirements          74.0 MB         0.0 MB |
| Force calculation requirements                       16.0 MB         0.0 MB |
|                                               ----------------------------- |
| Approx. total storage required per process          532.3 MB         0.0 MB |
|                                                                             |
| Requirements will fluctuate during execution and may exceed these estimates |
+-----------------------------------------------------------------------------+
Calculating finite basis set correction with  3 cut-off energies.
Calculating total energy with cut-off of  990.000 eV.
------------------------------------------------------------------------ <-- SCF
SCF loop      Energy           Fermi           Energy gain       Timer   <-- SCF
                               energy          per atom          (sec)   <-- SCF
------------------------------------------------------------------------ <-- SCF
Initial  -2.25108552E+003  0.00000000E+000                        10.23  <-- SCF
      1  -2.87704870E+003  1.05306286E+001   6.25963184E+001      19.01  <-- SCF
      2  -3.09110420E+003  2.86159299E+000   2.14055500E+001      26.47  <-- SCF
      3  -3.09681035E+003  2.97967932E+000   5.70614859E-001      33.55  <-- SCF
      4  -3.09271136E+003  7.01069908E+000  -4.09898786E-001      42.80  <-- SCF
      5  -3.08936191E+003  5.45185410E+000  -3.34945095E-001      52.04  <-- SCF
      6  -3.08936445E+003  5.54647554E+000   2.53664122E-004      61.03  <-- SCF
      7  -3.08936609E+003  5.60004073E+000   1.64100349E-004      69.09  <-- SCF
      8  -3.08936615E+003  5.59494672E+000   6.21711580E-006      76.49  <-- SCF
      9  -3.08936616E+003  5.59247914E+000   5.55481887E-007      82.48  <-- SCF
------------------------------------------------------------------------ <-- SCF
 
Final energy, E             =  -3089.366158243     eV
Final free energy (E-TS)    =  -3089.366158243     eV
(energies not corrected for finite basis set)
 
NB est. 0K energy (E-0.5TS)      =  -3089.366158243     eV
 
Calculating total energy with cut-off of  995.000 eV.
------------------------------------------------------------------------ <-- SCF
SCF loop      Energy           Fermi           Energy gain       Timer   <-- SCF
                               energy          per atom          (sec)   <-- SCF
------------------------------------------------------------------------ <-- SCF
Initial  -3.08936616E+003  0.00000000E+000                        84.98  <-- SCF
      1  -3.08936619E+003  5.59373944E+000   2.78891294E-006      90.50  <-- SCF
      2  -3.08936619E+003  5.59373943E+000   3.77168761E-007      96.24  <-- SCF
      3  -3.08936619E+003  5.59365684E+000   1.44585912E-007     101.90  <-- SCF
      4  -3.08936619E+003  5.59359441E+000   6.72495952E-008     107.57  <-- SCF
------------------------------------------------------------------------ <-- SCF
 
Final energy, E             =  -3089.366190986     eV
Final free energy (E-TS)    =  -3089.366190986     eV
(energies not corrected for finite basis set)
 
NB est. 0K energy (E-0.5TS)      =  -3089.366190986     eV
 
Calculating total energy with cut-off of 1000.000 eV.
------------------------------------------------------------------------ <-- SCF
SCF loop      Energy           Fermi           Energy gain       Timer   <-- SCF
                               energy          per atom          (sec)   <-- SCF
------------------------------------------------------------------------ <-- SCF
Initial  -3.08936619E+003  0.00000000E+000                       110.07  <-- SCF
      1  -3.08936622E+003  5.59382280E+000   3.28971022E-006     115.37  <-- SCF
      2  -3.08936623E+003  5.59382278E+000   1.36307386E-007     120.71  <-- SCF
      3  -3.08936623E+003  5.59372196E+000   2.76244001E-008     126.16  <-- SCF
      4  -3.08936623E+003  5.59373426E+000   5.08754111E-009     131.55  <-- SCF
------------------------------------------------------------------------ <-- SCF
 
Final energy, E             =  -3089.366225523     eV
Final free energy (E-TS)    =  -3089.366225523     eV
(energies not corrected for finite basis set)
 
NB est. 0K energy (E-0.5TS)      =  -3089.366225523     eV
 
 For future reference: finite basis dEtot/dlog(Ecut) =      -0.006577eV
 Total energy corrected for finite basis set =   -3089.366225 eV
 
+---------------- MEMORY AND SCRATCH DISK ESTIMATES PER PROCESS --------------+
|                                                     Memory          Disk    |
| Model and support data                              269.1 MB         0.0 MB |
| Electronic energy minimisation requirements          74.0 MB         0.0 MB |
| Geometry minimisation requirements                   95.2 MB         0.0 MB |
|                                               ----------------------------- |
| Approx. total storage required per process          438.3 MB         0.0 MB |
|                                                                             |
| Requirements will fluctuate during execution and may exceed these estimates |
+-----------------------------------------------------------------------------+
 

 ************************************** Forces **************************************
 *                                                                                  *
 *                           Cartesian components (eV/A)                            *
 * -------------------------------------------------------------------------------- *
 *                         x                    y                    z              *
 *                                                                                  *
 * O               1     -0.03549              0.00000             -0.00000         *
 * O               2      0.01774              0.03073             -0.00000         *
 * O               3      0.01775             -0.03075             -0.00000         *
 * O               4     -0.01774             -0.03073              0.00000         *
 * O               5     -0.01774              0.03074              0.00000         *
 * O               6      0.03547             -0.00000              0.00000         *
 * Al              1      0.00000              0.00001              0.02018         *
 * Al              2      0.00000             -0.00000              0.02019         *
 * Al              3      0.00000             -0.00001             -0.02019         *
 * Al              4      0.00000              0.00001             -0.02018         *
 *                                                                                  *
 ************************************************************************************

 ***************** Stress Tensor *****************
 *                                               *
 *          Cartesian components (GPa)           *
 * --------------------------------------------- *
 *             x             y             z     *
 *                                               *
 *  x     -1.785178      0.000006     -0.000018  *
 *  y      0.000006     -1.785197     -0.000031  *
 *  z     -0.000018     -0.000031     -1.194713  *
 *                                               *
 *  Pressure:    1.5884                          *
 *                                               *
 *************************************************
 LBFGS: finished iteration     0 with enthalpy= -3.08936622E+003 eV
  
 +-----------+-----------------+-----------------+------------+-----+ <-- LBFGS
 | Parameter |      value      |    tolerance    |    units   | OK? | <-- LBFGS
 +-----------+-----------------+-----------------+------------+-----+ <-- LBFGS
 |  dE/ion   |   0.000000E+000 |   1.000000E-005 |         eV | No  | <-- LBFGS
 |  |F|max   |   3.550208E-002 |   1.000000E-002 |       eV/A | No  | <-- LBFGS
 |  |dR|max  |   0.000000E+000 |   1.000000E-003 |          A | No  | <-- LBFGS
 |   Smax    |   1.785197E+000 |   1.000000E-001 |        GPa | No  | <-- LBFGS
 +-----------+-----------------+-----------------+------------+-----+ <-- LBFGS
  

================================================================================
 Starting LBFGS iteration          1 ...
================================================================================
  
 +------------+-------------+-------------+-----------------+ <-- min LBFGS
 |    Step    |   lambda    |   F.delta'  |    enthalpy     | <-- min LBFGS
 +------------+-------------+-------------+-----------------+ <-- min LBFGS
 |  previous  |    0.000000 |    0.055191 |    -3089.366225 | <-- min LBFGS
 +------------+-------------+-------------+-----------------+ <-- min LBFGS
  

--------------------------------------------------------------------------------
 LBFGS: starting iteration         1 with trial guess (lambda=  1.000000)
--------------------------------------------------------------------------------
 
+---------------- MEMORY AND SCRATCH DISK ESTIMATES PER PROCESS --------------+
|                                                     Memory          Disk    |
| Model and support data                              269.3 MB         0.0 MB |
| Electronic energy minimisation requirements          74.2 MB         0.0 MB |
| Geometry minimisation requirements                   95.5 MB         0.0 MB |
|                                               ----------------------------- |
| Approx. total storage required per process          439.0 MB         0.0 MB |
|                                                                             |
| Requirements will fluctuate during execution and may exceed these estimates |
+-----------------------------------------------------------------------------+
 

                           -------------------------------
                                      Unit Cell
                           -------------------------------
        Real Lattice(A)              Reciprocal Lattice(1/A)
     2.3829326     1.3757865     4.3344496        1.318372431   0.761162689   0.483197509
    -2.3829326     1.3757865     4.3344495       -1.318372437   0.761162678   0.483197542
     0.0000001    -2.7515738     4.3344495       -0.000000012  -1.522325397   0.483197396

                       Lattice parameters(A)       Cell Angles
                    a =      5.134064          alpha =   55.309365
                    b =      5.134064          beta  =   55.309365
                    c =      5.134064          gamma =   55.309366

                Current cell volume =            85.260541 A**3
                            density =             2.391758 amu/A**3
                                    =             3.971607 g/cm^3

                           -------------------------------
                                     Cell Contents
                           -------------------------------

            xxxxxxxxxxxxxxxxxxxxxxxxxxxxxxxxxxxxxxxxxxxxxxxxxxxxxxxxxxxxxxxxx
            x  Element         Atom        Fractional coordinates of atoms  x
            x                 Number           u          v          w      x
            x---------------------------------------------------------------x
            x  O                 1         0.556224   0.943776   0.250000   x
            x  O                 2         0.943776   0.250000   0.556224   x
            x  O                 3         0.250000   0.556224   0.943776   x
            x  O                 4         0.056224   0.750000   0.443776   x
            x  O                 5         0.750000   0.443776   0.056224   x
            x  O                 6         0.443776   0.056224   0.750000   x
            x  Al                1         0.147907   0.147907   0.147907   x
            x  Al                2         0.647908   0.647908   0.647907   x
            x  Al                3         0.852093   0.852093   0.852092   x
            x  Al                4         0.352093   0.352093   0.352092   x
            xxxxxxxxxxxxxxxxxxxxxxxxxxxxxxxxxxxxxxxxxxxxxxxxxxxxxxxxxxxxxxxxx


------------------------------------------------------------------------ <-- SCF
SCF loop      Energy           Fermi           Energy gain       Timer   <-- SCF
                               energy          per atom          (sec)   <-- SCF
------------------------------------------------------------------------ <-- SCF
Initial  -3.08935850E+003  0.00000000E+000                       158.31  <-- SCF
      1  -3.08937589E+003  5.49248266E+000   1.73973044E-003     166.50  <-- SCF
      2  -3.08937598E+003  5.49248260E+000   8.75512044E-006     173.54  <-- SCF
      3  -3.08937267E+003  5.61947616E+000  -3.31504416E-004     182.49  <-- SCF
      4  -3.08936833E+003  5.56353335E+000  -4.33183361E-004     191.40  <-- SCF
      5  -3.08936834E+003  5.56377096E+000   5.90837753E-007     196.42  <-- SCF
      6  -3.08936834E+003  5.56400834E+000   6.32021531E-008     201.49  <-- SCF
------------------------------------------------------------------------ <-- SCF
 
Final energy, E             =  -3089.368339976     eV
Final free energy (E-TS)    =  -3089.368339976     eV
(energies not corrected for finite basis set)
 
NB est. 0K energy (E-0.5TS)      =  -3089.368339976     eV
 

 ************************************** Forces **************************************
 *                                                                                  *
 *                           Cartesian components (eV/A)                            *
 * -------------------------------------------------------------------------------- *
 *                         x                    y                    z              *
 *                                                                                  *
 * O               1     -0.03748              0.00003              0.00000         *
 * O               2      0.01874              0.03246              0.00001         *
 * O               3      0.01871             -0.03246              0.00000         *
 * O               4     -0.01875             -0.03247              0.00001         *
 * O               5     -0.01873              0.03245             -0.00002         *
 * O               6      0.03751             -0.00001             -0.00000         *
 * Al              1     -0.00000              0.00001              0.01366         *
 * Al              2     -0.00000             -0.00001              0.01366         *
 * Al              3      0.00000             -0.00001             -0.01365         *
 * Al              4     -0.00000              0.00000             -0.01366         *
 *                                                                                  *
 ************************************************************************************

 ***************** Stress Tensor *****************
 *                                               *
 *          Cartesian components (GPa)           *
 * --------------------------------------------- *
 *             x             y             z     *
 *                                               *
 *  x     -0.945918      0.000026      0.000023  *
 *  y      0.000026     -0.945952     -0.000028  *
 *  z      0.000023     -0.000028     -0.565780  *
 *                                               *
 *  Pressure:    0.8192                          *
 *                                               *
 *************************************************
  
 +------------+-------------+-------------+-----------------+ <-- min LBFGS
 |    Step    |   lambda    |   F.delta'  |    enthalpy     | <-- min LBFGS
 +------------+-------------+-------------+-----------------+ <-- min LBFGS
 |  previous  |    0.000000 |    0.055191 |    -3089.366225 | <-- min LBFGS
 | trial step |    1.000000 |    0.029142 |    -3089.368339 | <-- min LBFGS
 +------------+-------------+-------------+-----------------+ <-- min LBFGS
  

--------------------------------------------------------------------------------
 LBFGS: improving iteration         1 with line minimization (lambda=  2.118727)
--------------------------------------------------------------------------------
 
+---------------- MEMORY AND SCRATCH DISK ESTIMATES PER PROCESS --------------+
|                                                     Memory          Disk    |
| Model and support data                              269.4 MB         0.0 MB |
| Electronic energy minimisation requirements          74.5 MB         0.0 MB |
| Geometry minimisation requirements                   95.8 MB         0.0 MB |
|                                               ----------------------------- |
| Approx. total storage required per process          439.7 MB         0.0 MB |
|                                                                             |
| Requirements will fluctuate during execution and may exceed these estimates |
+-----------------------------------------------------------------------------+
 

                           -------------------------------
                                      Unit Cell
                           -------------------------------
        Real Lattice(A)              Reciprocal Lattice(1/A)
     2.3861016     1.3776162     4.3383087        1.316621538   0.760151797   0.482767651
    -2.3861014     1.3776162     4.3383086       -1.316621551   0.760151775   0.482767720
     0.0000001    -2.7552328     4.3383085       -0.000000025  -1.520303633   0.482767608

                       Lattice parameters(A)       Cell Angles
                    a =      5.139283          alpha =   55.328158
                    b =      5.139283          beta  =   55.328156
                    c =      5.139283          gamma =   55.328157

                Current cell volume =            85.563570 A**3
                            density =             2.383287 amu/A**3
                                    =             3.957541 g/cm^3

                           -------------------------------
                                     Cell Contents
                           -------------------------------

            xxxxxxxxxxxxxxxxxxxxxxxxxxxxxxxxxxxxxxxxxxxxxxxxxxxxxxxxxxxxxxxxx
            x  Element         Atom        Fractional coordinates of atoms  x
            x                 Number           u          v          w      x
            x---------------------------------------------------------------x
            x  O                 1         0.556184   0.943816   0.250000   x
            x  O                 2         0.943816   0.250000   0.556184   x
            x  O                 3         0.250000   0.556184   0.943816   x
            x  O                 4         0.056184   0.750000   0.443816   x
            x  O                 5         0.750000   0.443816   0.056184   x
            x  O                 6         0.443816   0.056184   0.750000   x
            x  Al                1         0.147916   0.147916   0.147916   x
            x  Al                2         0.647916   0.647916   0.647916   x
            x  Al                3         0.852084   0.852084   0.852084   x
            x  Al                4         0.352084   0.352084   0.352084   x
            xxxxxxxxxxxxxxxxxxxxxxxxxxxxxxxxxxxxxxxxxxxxxxxxxxxxxxxxxxxxxxxxx


------------------------------------------------------------------------ <-- SCF
SCF loop      Energy           Fermi           Energy gain       Timer   <-- SCF
                               energy          per atom          (sec)   <-- SCF
------------------------------------------------------------------------ <-- SCF
Initial  -3.08935685E+003  0.00000000E+000                       227.38  <-- SCF
      1  -3.08937850E+003  5.45123427E+000   2.16497793E-003     235.56  <-- SCF
      2  -3.08937861E+003  5.45123419E+000   1.11098486E-005     242.73  <-- SCF
      3  -3.08937452E+003  5.59243985E+000  -4.08895434E-004     251.71  <-- SCF
      4  -3.08936909E+003  5.52959019E+000  -5.43461021E-004     260.80  <-- SCF
      5  -3.08936909E+003  5.52984973E+000   7.52229636E-007     265.83  <-- SCF
      6  -3.08936909E+003  5.53011499E+000   7.99791594E-008     270.73  <-- SCF
------------------------------------------------------------------------ <-- SCF
 
Final energy, E             =  -3089.369093370     eV
Final free energy (E-TS)    =  -3089.369093370     eV
(energies not corrected for finite basis set)
 
NB est. 0K energy (E-0.5TS)      =  -3089.369093370     eV
 

 ************************************** Forces **************************************
 *                                                                                  *
 *                           Cartesian components (eV/A)                            *
 * -------------------------------------------------------------------------------- *
 *                         x                    y                    z              *
 *                                                                                  *
 * O               1     -0.03775              0.00004              0.00000         *
 * O               2      0.01885              0.03266             -0.00001         *
 * O               3      0.01884             -0.03267              0.00001         *
 * O               4     -0.01886             -0.03268              0.00002         *
 * O               5     -0.01885              0.03268             -0.00001         *
 * O               6      0.03779             -0.00003             -0.00001         *
 * Al              1     -0.00000              0.00001              0.00628         *
 * Al              2     -0.00000             -0.00001              0.00629         *
 * Al              3     -0.00000             -0.00000             -0.00628         *
 * Al              4     -0.00001              0.00001             -0.00628         *
 *                                                                                  *
 ************************************************************************************

 ***************** Stress Tensor *****************
 *                                               *
 *          Cartesian components (GPa)           *
 * --------------------------------------------- *
 *             x             y             z     *
 *                                               *
 *  x      0.007155      0.000025      0.000004  *
 *  y      0.000025      0.007092     -0.000038  *
 *  z      0.000004     -0.000038      0.143324  *
 *                                               *
 *  Pressure:   -0.0525                          *
 *                                               *
 *************************************************
  
 +------------+-------------+-------------+-----------------+ <-- min LBFGS
 |    Step    |   lambda    |   F.delta'  |    enthalpy     | <-- min LBFGS
 +------------+-------------+-------------+-----------------+ <-- min LBFGS
 |  previous  |    0.000000 |    0.055191 |    -3089.366225 | <-- min LBFGS
 | trial step |    1.000000 |    0.029142 |    -3089.368339 | <-- min LBFGS
 |  line step |    2.118727 |   -0.000568 |    -3089.369093 | <-- min LBFGS
 +------------+-------------+-------------+-----------------+ <-- min LBFGS
  
 LBFGS: finished iteration     1 with enthalpy= -3.08936909E+003 eV
  
 +-----------+-----------------+-----------------+------------+-----+ <-- LBFGS
 | Parameter |      value      |    tolerance    |    units   | OK? | <-- LBFGS
 +-----------+-----------------+-----------------+------------+-----+ <-- LBFGS
 |  dE/ion   |   2.868731E-004 |   1.000000E-005 |         eV | No  | <-- LBFGS
 |  |F|max   |   3.778874E-002 |   1.000000E-002 |       eV/A | No  | <-- LBFGS
 |  |dR|max  |   3.615087E-004 |   1.000000E-003 |          A | Yes | <-- LBFGS
 |   Smax    |   1.433240E-001 |   1.000000E-001 |        GPa | No  | <-- LBFGS
 +-----------+-----------------+-----------------+------------+-----+ <-- LBFGS
  

================================================================================
 Starting LBFGS iteration          2 ...
================================================================================
  
 +------------+-------------+-------------+-----------------+ <-- min LBFGS
 |    Step    |   lambda    |   F.delta'  |    enthalpy     | <-- min LBFGS
 +------------+-------------+-------------+-----------------+ <-- min LBFGS
 |  previous  |    0.000000 |    0.011189 |    -3089.369093 | <-- min LBFGS
 +------------+-------------+-------------+-----------------+ <-- min LBFGS
  

--------------------------------------------------------------------------------
 LBFGS: starting iteration         2 with trial guess (lambda=  1.000000)
--------------------------------------------------------------------------------

                           -------------------------------
                                      Unit Cell
                           -------------------------------
        Real Lattice(A)              Reciprocal Lattice(1/A)
     2.3861065     1.3776192     4.3379169        1.316618813   0.760150193   0.482811250
    -2.3861064     1.3776193     4.3379168       -1.316618797   0.760150127   0.482811311
     0.0000002    -2.7552386     4.3379165       -0.000000049  -1.520300418   0.482811260

                       Lattice parameters(A)       Cell Angles
                    a =      5.138955          alpha =   55.332116
                    b =      5.138955          beta  =   55.332113
                    c =      5.138955          gamma =   55.332112

                Current cell volume =            85.556200 A**3
                            density =             2.383492 amu/A**3
                                    =             3.957882 g/cm^3

                           -------------------------------
                                     Cell Contents
                           -------------------------------

            xxxxxxxxxxxxxxxxxxxxxxxxxxxxxxxxxxxxxxxxxxxxxxxxxxxxxxxxxxxxxxxxx
            x  Element         Atom        Fractional coordinates of atoms  x
            x                 Number           u          v          w      x
            x---------------------------------------------------------------x
            x  O                 1         0.556146   0.943854   0.250000   x
            x  O                 2         0.943854   0.250000   0.556146   x
            x  O                 3         0.250000   0.556146   0.943854   x
            x  O                 4         0.056146   0.750000   0.443854   x
            x  O                 5         0.750000   0.443854   0.056146   x
            x  O                 6         0.443854   0.056146   0.750000   x
            x  Al                1         0.147918   0.147918   0.147918   x
            x  Al                2         0.647918   0.647918   0.647918   x
            x  Al                3         0.852082   0.852082   0.852082   x
            x  Al                4         0.352082   0.352082   0.352082   x
            xxxxxxxxxxxxxxxxxxxxxxxxxxxxxxxxxxxxxxxxxxxxxxxxxxxxxxxxxxxxxxxxx


------------------------------------------------------------------------ <-- SCF
SCF loop      Energy           Fermi           Energy gain       Timer   <-- SCF
                               energy          per atom          (sec)   <-- SCF
------------------------------------------------------------------------ <-- SCF
Initial  -3.08936885E+003  0.00000000E+000                       295.72  <-- SCF
      1  -3.08936924E+003  5.53143031E+000   3.84825898E-005     303.10  <-- SCF
      2  -3.08936924E+003  5.53143029E+000   6.41966993E-007     308.05  <-- SCF
      3  -3.08936913E+003  5.52911893E+000  -1.13120421E-005     313.45  <-- SCF
      4  -3.08936913E+003  5.53114504E+000   2.45744005E-007     318.50  <-- SCF
      5  -3.08936914E+003  5.53095603E+000   3.67898163E-007     323.38  <-- SCF
------------------------------------------------------------------------ <-- SCF
 
Final energy, E             =  -3089.369136058     eV
Final free energy (E-TS)    =  -3089.369136058     eV
(energies not corrected for finite basis set)
 
NB est. 0K energy (E-0.5TS)      =  -3089.369136058     eV
 

 ************************************** Forces **************************************
 *                                                                                  *
 *                           Cartesian components (eV/A)                            *
 * -------------------------------------------------------------------------------- *
 *                         x                    y                    z              *
 *                                                                                  *
 * O               1     -0.06195              0.00003              0.00002         *
 * O               2      0.03090              0.05355             -0.00000         *
 * O               3      0.03096             -0.05363              0.00000         *
 * O               4     -0.03092             -0.05358              0.00001         *
 * O               5     -0.03096              0.05366             -0.00000         *
 * O               6      0.06195             -0.00002             -0.00001         *
 * Al              1      0.00001              0.00000              0.00755         *
 * Al              2      0.00000             -0.00001              0.00754         *
 * Al              3      0.00000             -0.00001             -0.00755         *
 * Al              4      0.00000              0.00000             -0.00756         *
 *                                                                                  *
 ************************************************************************************

 ***************** Stress Tensor *****************
 *                                               *
 *          Cartesian components (GPa)           *
 * --------------------------------------------- *
 *             x             y             z     *
 *                                               *
 *  x     -0.052327      0.000004      0.000005  *
 *  y      0.000004     -0.052366     -0.000062  *
 *  z      0.000005     -0.000062      0.053466  *
 *                                               *
 *  Pressure:    0.0171                          *
 *                                               *
 *************************************************
  
 +------------+-------------+-------------+-----------------+ <-- min LBFGS
 |    Step    |   lambda    |   F.delta'  |    enthalpy     | <-- min LBFGS
 +------------+-------------+-------------+-----------------+ <-- min LBFGS
 |  previous  |    0.000000 |    0.011189 |    -3089.369093 | <-- min LBFGS
 | trial step |    1.000000 |    0.016297 |    -3089.369136 | <-- min LBFGS
 +------------+-------------+-------------+-----------------+ <-- min LBFGS
  

--------------------------------------------------------------------------------
 LBFGS: improving iteration         2 with line minimization (lambda= -2.190848)
--------------------------------------------------------------------------------

                           -------------------------------
                                      Unit Cell
                           -------------------------------
        Real Lattice(A)              Reciprocal Lattice(1/A)
     2.3860908     1.3776096     4.3391673        1.316627510   0.760155310   0.482672162
    -2.3860905     1.3776095     4.3391671       -1.316627584   0.760155384   0.482672247
     0.0000001    -2.7552203     4.3391672        0.000000027  -1.520310677   0.482672002

                       Lattice parameters(A)       Cell Angles
                    a =      5.140001          alpha =   55.319487
                    b =      5.140001          beta  =   55.319488
                    c =      5.140001          gamma =   55.319493

                Current cell volume =            85.579715 A**3
                            density =             2.382838 amu/A**3
                                    =             3.956795 g/cm^3

                           -------------------------------
                                     Cell Contents
                           -------------------------------

            xxxxxxxxxxxxxxxxxxxxxxxxxxxxxxxxxxxxxxxxxxxxxxxxxxxxxxxxxxxxxxxxx
            x  Element         Atom        Fractional coordinates of atoms  x
            x                 Number           u          v          w      x
            x---------------------------------------------------------------x
            x  O                 1         0.556267   0.943733   0.250000   x
            x  O                 2         0.943733   0.250000   0.556267   x
            x  O                 3         0.250000   0.556267   0.943733   x
            x  O                 4         0.056267   0.750000   0.443733   x
            x  O                 5         0.750000   0.443733   0.056267   x
            x  O                 6         0.443733   0.056268   0.750000   x
            x  Al                1         0.147911   0.147911   0.147911   x
            x  Al                2         0.647911   0.647911   0.647911   x
            x  Al                3         0.852089   0.852089   0.852089   x
            x  Al                4         0.352089   0.352089   0.352089   x
            xxxxxxxxxxxxxxxxxxxxxxxxxxxxxxxxxxxxxxxxxxxxxxxxxxxxxxxxxxxxxxxxx


------------------------------------------------------------------------ <-- SCF
SCF loop      Energy           Fermi           Energy gain       Timer   <-- SCF
                               energy          per atom          (sec)   <-- SCF
------------------------------------------------------------------------ <-- SCF
Initial  -3.08936600E+003  0.00000000E+000                       349.77  <-- SCF
      1  -3.08937003E+003  5.52811597E+000   4.03007596E-004     357.50  <-- SCF
      2  -3.08937010E+003  5.52811112E+000   7.29414506E-006     364.21  <-- SCF
      3  -3.08936900E+003  5.53427463E+000  -1.10598057E-004     372.18  <-- SCF
      4  -3.08936897E+003  5.52743419E+000  -2.52611853E-006     377.62  <-- SCF
      5  -3.08936897E+003  5.52829299E+000   1.93759663E-007     382.53  <-- SCF
------------------------------------------------------------------------ <-- SCF
 
Final energy, E             =  -3089.368972831     eV
Final free energy (E-TS)    =  -3089.368972831     eV
(energies not corrected for finite basis set)
 
NB est. 0K energy (E-0.5TS)      =  -3089.368972831     eV
 

 ************************************** Forces **************************************
 *                                                                                  *
 *                           Cartesian components (eV/A)                            *
 * -------------------------------------------------------------------------------- *
 *                         x                    y                    z              *
 *                                                                                  *
 * O               1     -0.01917             -0.00001              0.00001         *
 * O               2      0.00959              0.01662              0.00002         *
 * O               3      0.00960             -0.01660             -0.00000         *
 * O               4     -0.00963             -0.01666             -0.00004         *
 * O               5     -0.00961              0.01660              0.00002         *
 * O               6      0.01922              0.00000             -0.00003         *
 * Al              1     -0.00001              0.00002              0.00854         *
 * Al              2      0.00000              0.00000              0.00854         *
 * Al              3      0.00001              0.00000             -0.00853         *
 * Al              4     -0.00001              0.00002             -0.00854         *
 *                                                                                  *
 ************************************************************************************

 ***************** Stress Tensor *****************
 *                                               *
 *          Cartesian components (GPa)           *
 * --------------------------------------------- *
 *             x             y             z     *
 *                                               *
 *  x      0.095237      0.000006      0.000017  *
 *  y      0.000006      0.095227      0.000025  *
 *  z      0.000017      0.000025      0.260230  *
 *                                               *
 *  Pressure:   -0.1502                          *
 *                                               *
 *************************************************
  
 +------------+-------------+-------------+-----------------+ <-- min LBFGS
 |    Step    |   lambda    |   F.delta'  |    enthalpy     | <-- min LBFGS
 +------------+-------------+-------------+-----------------+ <-- min LBFGS
 |  previous  |    0.000000 |    0.011189 |    -3089.369093 | <-- min LBFGS
 | trial step |    1.000000 |    0.016297 |    -3089.369136 | <-- min LBFGS
 |  line step |   -2.190848 |    0.007873 |    -3089.368973 | <-- min LBFGS
 +------------+-------------+-------------+-----------------+ <-- min LBFGS
  

--------------------------------------------------------------------------------
 LBFGS: improving iteration         2 with quad minimization (lambda= -5.982072)
--------------------------------------------------------------------------------

                           -------------------------------
                                      Unit Cell
                           -------------------------------
        Real Lattice(A)              Reciprocal Lattice(1/A)
     2.3860721     1.3775983     4.3406529        1.316637844   0.760161390   0.482507009
    -2.3860715     1.3775978     4.3406527       -1.316638023   0.760161630   0.482507121
    -0.0000001    -2.7551985     4.3406532        0.000000118  -1.520322866   0.482506647

                       Lattice parameters(A)       Cell Angles
                    a =      5.141243          alpha =   55.304488
                    b =      5.141243          beta  =   55.304494
                    c =      5.141244          gamma =   55.304507

                Current cell volume =            85.607654 A**3
                            density =             2.382060 amu/A**3
                                    =             3.955503 g/cm^3

                           -------------------------------
                                     Cell Contents
                           -------------------------------

            xxxxxxxxxxxxxxxxxxxxxxxxxxxxxxxxxxxxxxxxxxxxxxxxxxxxxxxxxxxxxxxxx
            x  Element         Atom        Fractional coordinates of atoms  x
            x                 Number           u          v          w      x
            x---------------------------------------------------------------x
            x  O                 1         0.556411   0.943589   0.250000   x
            x  O                 2         0.943589   0.250000   0.556411   x
            x  O                 3         0.250000   0.556411   0.943589   x
            x  O                 4         0.056411   0.750000   0.443589   x
            x  O                 5         0.750000   0.443589   0.056411   x
            x  O                 6         0.443589   0.056412   0.750000   x
            x  Al                1         0.147902   0.147902   0.147902   x
            x  Al                2         0.647902   0.647902   0.647902   x
            x  Al                3         0.852098   0.852098   0.852098   x
            x  Al                4         0.352098   0.352098   0.352098   x
            xxxxxxxxxxxxxxxxxxxxxxxxxxxxxxxxxxxxxxxxxxxxxxxxxxxxxxxxxxxxxxxxx


------------------------------------------------------------------------ <-- SCF
SCF loop      Energy           Fermi           Energy gain       Timer   <-- SCF
                               energy          per atom          (sec)   <-- SCF
------------------------------------------------------------------------ <-- SCF
Initial  -3.08936467E+003  0.00000000E+000                       409.05  <-- SCF
      1  -3.08937012E+003  5.52470709E+000   5.44908785E-004     416.73  <-- SCF
      2  -3.08937019E+003  5.52470032E+000   6.64525464E-006     422.93  <-- SCF
      3  -3.08936873E+003  5.53277966E+000  -1.45382191E-004     431.41  <-- SCF
      4  -3.08936869E+003  5.52418992E+000  -4.15169148E-006     437.26  <-- SCF
      5  -3.08936869E+003  5.52521100E+000   3.24229238E-007     442.41  <-- SCF
------------------------------------------------------------------------ <-- SCF
 
Final energy, E             =  -3089.368693137     eV
Final free energy (E-TS)    =  -3089.368693137     eV
(energies not corrected for finite basis set)
 
NB est. 0K energy (E-0.5TS)      =  -3089.368693137     eV
 

 ************************************** Forces **************************************
 *                                                                                  *
 *                           Cartesian components (eV/A)                            *
 * -------------------------------------------------------------------------------- *
 *                         x                    y                    z              *
 *                                                                                  *
 * O               1     -0.03450              0.00000              0.00002         *
 * O               2      0.01722              0.02981              0.00000         *
 * O               3      0.01728             -0.02989             -0.00000         *
 * O               4     -0.01716             -0.02978              0.00003         *
 * O               5     -0.01724              0.02985             -0.00001         *
 * O               6      0.03440             -0.00001             -0.00003         *
 * Al              1     -0.00001              0.00002              0.01548         *
 * Al              2      0.00001             -0.00001              0.01548         *
 * Al              3      0.00000             -0.00001             -0.01549         *
 * Al              4     -0.00001              0.00001             -0.01549         *
 *                                                                                  *
 ************************************************************************************

 ***************** Stress Tensor *****************
 *                                               *
 *          Cartesian components (GPa)           *
 * --------------------------------------------- *
 *             x             y             z     *
 *                                               *
 *  x      0.149457      0.000027      0.000032  *
 *  y      0.000027      0.149377     -0.000037  *
 *  z      0.000032     -0.000037      0.433633  *
 *                                               *
 *  Pressure:   -0.2442                          *
 *                                               *
 *************************************************
  
 +------------+-------------+-------------+-----------------+ <-- min LBFGS
 |    Step    |   lambda    |   F.delta'  |    enthalpy     | <-- min LBFGS
 +------------+-------------+-------------+-----------------+ <-- min LBFGS
 |  previous  |    0.000000 |    0.011189 |    -3089.369093 | <-- min LBFGS
 | trial step |    1.000000 |    0.016297 |    -3089.369136 | <-- min LBFGS
 |  line step |   -2.190848 |    0.007873 |    -3089.368973 | <-- min LBFGS
 |  quad step |   -5.982072 |    0.013774 |    -3089.368692 | <-- min LBFGS
 +------------+-------------+-------------+-----------------+ <-- min LBFGS
  
 LBFGS: reverting to earlier configuration

                           -------------------------------
                                      Unit Cell
                           -------------------------------
        Real Lattice(A)              Reciprocal Lattice(1/A)
     2.3860908     1.3776096     4.3391673        1.316627510   0.760155310   0.482672162
    -2.3860905     1.3776095     4.3391671       -1.316627584   0.760155384   0.482672247
     0.0000001    -2.7552203     4.3391672        0.000000027  -1.520310677   0.482672002

                       Lattice parameters(A)       Cell Angles
                    a =      5.140001          alpha =   55.319487
                    b =      5.140001          beta  =   55.319488
                    c =      5.140001          gamma =   55.319493

                Current cell volume =            85.579715 A**3
                            density =             2.382838 amu/A**3
                                    =             3.956795 g/cm^3

                           -------------------------------
                                     Cell Contents
                           -------------------------------

            xxxxxxxxxxxxxxxxxxxxxxxxxxxxxxxxxxxxxxxxxxxxxxxxxxxxxxxxxxxxxxxxx
            x  Element         Atom        Fractional coordinates of atoms  x
            x                 Number           u          v          w      x
            x---------------------------------------------------------------x
            x  O                 1         0.556267   0.943733   0.250000   x
            x  O                 2         0.943733   0.250000   0.556267   x
            x  O                 3         0.250000   0.556267   0.943733   x
            x  O                 4         0.056267   0.750000   0.443733   x
            x  O                 5         0.750000   0.443733   0.056267   x
            x  O                 6         0.443733   0.056268   0.750000   x
            x  Al                1         0.147911   0.147911   0.147911   x
            x  Al                2         0.647911   0.647911   0.647911   x
            x  Al                3         0.852089   0.852089   0.852089   x
            x  Al                4         0.352089   0.352089   0.352089   x
            xxxxxxxxxxxxxxxxxxxxxxxxxxxxxxxxxxxxxxxxxxxxxxxxxxxxxxxxxxxxxxxxx


 LBFGS: updated estimated <frequency>  =1793.94979 cm-1
 LBFGS: updated estimated bulk modulus = 246.88317 GPa
 LBFGS: finished iteration     2 with enthalpy= -3.08936897E+003 eV
  
 +-----------+-----------------+-----------------+------------+-----+ <-- LBFGS
 | Parameter |      value      |    tolerance    |    units   | OK? | <-- LBFGS
 +-----------+-----------------+-----------------+------------+-----+ <-- LBFGS
 |  dE/ion   |   1.205333E-005 |   1.000000E-005 |         eV | No  | <-- LBFGS
 |  |F|max   |   1.924708E-002 |   1.000000E-002 |       eV/A | No  | <-- LBFGS
 |  |dR|max  |   3.969732E-004 |   1.000000E-003 |          A | Yes | <-- LBFGS
 |   Smax    |   2.602298E-001 |   1.000000E-001 |        GPa | No  | <-- LBFGS
 +-----------+-----------------+-----------------+------------+-----+ <-- LBFGS
  

================================================================================
 Starting LBFGS iteration          3 ...
================================================================================
  
 +------------+-------------+-------------+-----------------+ <-- min LBFGS
 |    Step    |   lambda    |   F.delta'  |    enthalpy     | <-- min LBFGS
 +------------+-------------+-------------+-----------------+ <-- min LBFGS
 |  previous  |    0.000000 |    0.006633 |    -3089.368973 | <-- min LBFGS
 +------------+-------------+-------------+-----------------+ <-- min LBFGS
  

--------------------------------------------------------------------------------
 LBFGS: starting iteration         3 with trial guess (lambda=  1.000000)
--------------------------------------------------------------------------------

                           -------------------------------
                                      Unit Cell
                           -------------------------------
        Real Lattice(A)              Reciprocal Lattice(1/A)
     2.3857854     1.3774332     4.3376483        1.316795999   0.760252593   0.482841227
    -2.3857853     1.3774331     4.3376483       -1.316796040   0.760252648   0.482841253
    -0.0000000    -2.7548679     4.3376485        0.000000027  -1.520505175   0.482840961

                       Lattice parameters(A)       Cell Angles
                    a =      5.138530          alpha =   55.328995
                    b =      5.138530          beta  =   55.328997
                    c =      5.138530          gamma =   55.329003

                Current cell volume =            85.527871 A**3
                            density =             2.384282 amu/A**3
                                    =             3.959193 g/cm^3

                           -------------------------------
                                     Cell Contents
                           -------------------------------

            xxxxxxxxxxxxxxxxxxxxxxxxxxxxxxxxxxxxxxxxxxxxxxxxxxxxxxxxxxxxxxxxx
            x  Element         Atom        Fractional coordinates of atoms  x
            x                 Number           u          v          w      x
            x---------------------------------------------------------------x
            x  O                 1         0.556251   0.943749   0.250000   x
            x  O                 2         0.943750   0.250000   0.556250   x
            x  O                 3         0.250000   0.556251   0.943749   x
            x  O                 4         0.056250   0.750000   0.443749   x
            x  O                 5         0.750000   0.443750   0.056251   x
            x  O                 6         0.443749   0.056251   0.750000   x
            x  Al                1         0.147913   0.147913   0.147913   x
            x  Al                2         0.647913   0.647913   0.647913   x
            x  Al                3         0.852087   0.852087   0.852086   x
            x  Al                4         0.352087   0.352087   0.352087   x
            xxxxxxxxxxxxxxxxxxxxxxxxxxxxxxxxxxxxxxxxxxxxxxxxxxxxxxxxxxxxxxxxx


------------------------------------------------------------------------ <-- SCF
SCF loop      Energy           Fermi           Energy gain       Timer   <-- SCF
                               energy          per atom          (sec)   <-- SCF
------------------------------------------------------------------------ <-- SCF
Initial  -3.08936856E+003  0.00000000E+000                       470.22  <-- SCF
      1  -3.08936933E+003  5.54706054E+000   7.75410608E-005     478.55  <-- SCF
      2  -3.08936934E+003  5.54706053E+000   3.52008008E-007     483.59  <-- SCF
      3  -3.08936918E+003  5.52489523E+000  -1.55754275E-005     492.70  <-- SCF
      4  -3.08936901E+003  5.53580622E+000  -1.66735134E-005     499.60  <-- SCF
      5  -3.08936902E+003  5.53681565E+000   6.43826348E-007     504.47  <-- SCF
      6  -3.08936903E+003  5.53691142E+000   4.07744471E-007     509.36  <-- SCF
------------------------------------------------------------------------ <-- SCF
 
Final energy, E             =  -3089.369025182     eV
Final free energy (E-TS)    =  -3089.369025182     eV
(energies not corrected for finite basis set)
 
NB est. 0K energy (E-0.5TS)      =  -3089.369025182     eV
 

 ************************************** Forces **************************************
 *                                                                                  *
 *                           Cartesian components (eV/A)                            *
 * -------------------------------------------------------------------------------- *
 *                         x                    y                    z              *
 *                                                                                  *
 * O               1     -0.04242             -0.00001             -0.00001         *
 * O               2      0.02118              0.03673              0.00001         *
 * O               3      0.02118             -0.03675             -0.00001         *
 * O               4     -0.02117             -0.03674              0.00002         *
 * O               5     -0.02120              0.03674             -0.00002         *
 * O               6      0.04245             -0.00000              0.00001         *
 * Al              1     -0.00000              0.00001              0.00761         *
 * Al              2     -0.00000              0.00000              0.00761         *
 * Al              3     -0.00001             -0.00000             -0.00761         *
 * Al              4     -0.00001              0.00001             -0.00761         *
 *                                                                                  *
 ************************************************************************************

 ***************** Stress Tensor *****************
 *                                               *
 *          Cartesian components (GPa)           *
 * --------------------------------------------- *
 *             x             y             z     *
 *                                               *
 *  x     -0.030129     -0.000010     -0.000013  *
 *  y     -0.000010     -0.030223     -0.000016  *
 *  z     -0.000013     -0.000016      0.091439  *
 *                                               *
 *  Pressure:   -0.0104                          *
 *                                               *
 *************************************************
  
 +------------+-------------+-------------+-----------------+ <-- min LBFGS
 |    Step    |   lambda    |   F.delta'  |    enthalpy     | <-- min LBFGS
 +------------+-------------+-------------+-----------------+ <-- min LBFGS
 |  previous  |    0.000000 |    0.006633 |    -3089.368973 | <-- min LBFGS
 | trial step |    1.000000 |    0.003157 |    -3089.369025 | <-- min LBFGS
 +------------+-------------+-------------+-----------------+ <-- min LBFGS
  

--------------------------------------------------------------------------------
 LBFGS: improving iteration         3 with line minimization (lambda=  1.908156)
--------------------------------------------------------------------------------

                           -------------------------------
                                      Unit Cell
                           -------------------------------
        Real Lattice(A)              Reciprocal Lattice(1/A)
     2.3855081     1.3772730     4.3362689        1.316949051   0.760340963   0.482994867
    -2.3855081     1.3772730     4.3362689       -1.316949062   0.760341000   0.482994839
    -0.0000001    -2.7545480     4.3362692        0.000000026  -1.520681853   0.482994504

                       Lattice parameters(A)       Cell Angles
                    a =      5.137194          alpha =   55.337635
                    b =      5.137194          beta  =   55.337637
                    c =      5.137194          gamma =   55.337643

                Current cell volume =            85.480805 A**3
                            density =             2.385595 amu/A**3
                                    =             3.961373 g/cm^3

                           -------------------------------
                                     Cell Contents
                           -------------------------------

            xxxxxxxxxxxxxxxxxxxxxxxxxxxxxxxxxxxxxxxxxxxxxxxxxxxxxxxxxxxxxxxxx
            x  Element         Atom        Fractional coordinates of atoms  x
            x                 Number           u          v          w      x
            x---------------------------------------------------------------x
            x  O                 1         0.556236   0.943764   0.250000   x
            x  O                 2         0.943765   0.250000   0.556235   x
            x  O                 3         0.250000   0.556235   0.943764   x
            x  O                 4         0.056235   0.750000   0.443765   x
            x  O                 5         0.750000   0.443765   0.056235   x
            x  O                 6         0.443764   0.056236   0.750000   x
            x  Al                1         0.147916   0.147916   0.147916   x
            x  Al                2         0.647916   0.647916   0.647916   x
            x  Al                3         0.852084   0.852084   0.852084   x
            x  Al                4         0.352084   0.352084   0.352084   x
            xxxxxxxxxxxxxxxxxxxxxxxxxxxxxxxxxxxxxxxxxxxxxxxxxxxxxxxxxxxxxxxxx


------------------------------------------------------------------------ <-- SCF
SCF loop      Energy           Fermi           Energy gain       Timer   <-- SCF
                               energy          per atom          (sec)   <-- SCF
------------------------------------------------------------------------ <-- SCF
Initial  -3.08936866E+003  0.00000000E+000                       535.64  <-- SCF
      1  -3.08936928E+003  5.55270175E+000   6.14510262E-005     544.04  <-- SCF
      2  -3.08936928E+003  5.55270175E+000   2.76336305E-007     548.91  <-- SCF
      3  -3.08936916E+003  5.53177889E+000  -1.21762261E-005     558.00  <-- SCF
      4  -3.08936900E+003  5.54170951E+000  -1.61598924E-005     563.10  <-- SCF
      5  -3.08936901E+003  5.54489875E+000   1.16318149E-006     567.98  <-- SCF
      6  -3.08936902E+003  5.54506102E+000   1.50208201E-006     572.80  <-- SCF
------------------------------------------------------------------------ <-- SCF
 
Final energy, E             =  -3089.369022253     eV
Final free energy (E-TS)    =  -3089.369022253     eV
(energies not corrected for finite basis set)
 
NB est. 0K energy (E-0.5TS)      =  -3089.369022253     eV
 

 ************************************** Forces **************************************
 *                                                                                  *
 *                           Cartesian components (eV/A)                            *
 * -------------------------------------------------------------------------------- *
 *                         x                    y                    z              *
 *                                                                                  *
 * O               1     -0.03921              0.00002             -0.00001         *
 * O               2      0.01958              0.03394             -0.00001         *
 * O               3      0.01961             -0.03397             -0.00001         *
 * O               4     -0.01960             -0.03397              0.00001         *
 * O               5     -0.01964              0.03399              0.00001         *
 * O               6      0.03926             -0.00000              0.00002         *
 * Al              1      0.00000              0.00000              0.00520         *
 * Al              2      0.00000             -0.00000              0.00521         *
 * Al              3     -0.00000             -0.00001             -0.00521         *
 * Al              4     -0.00000              0.00000             -0.00521         *
 *                                                                                  *
 ************************************************************************************

 ***************** Stress Tensor *****************
 *                                               *
 *          Cartesian components (GPa)           *
 * --------------------------------------------- *
 *             x             y             z     *
 *                                               *
 *  x     -0.105851      0.000025     -0.000043  *
 *  y      0.000025     -0.105910     -0.000008  *
 *  z     -0.000043     -0.000008     -0.057151  *
 *                                               *
 *  Pressure:    0.0896                          *
 *                                               *
 *************************************************
  
 +------------+-------------+-------------+-----------------+ <-- min LBFGS
 |    Step    |   lambda    |   F.delta'  |    enthalpy     | <-- min LBFGS
 +------------+-------------+-------------+-----------------+ <-- min LBFGS
 |  previous  |    0.000000 |    0.006633 |    -3089.368973 | <-- min LBFGS
 | trial step |    1.000000 |    0.003157 |    -3089.369025 | <-- min LBFGS
 |  line step |    1.908156 |   -0.000523 |    -3089.369022 | <-- min LBFGS
[...]
 | Parameter |      value      |    tolerance    |    units   | OK? | <-- LBFGS
 +-----------+-----------------+-----------------+------------+-----+ <-- LBFGS
 |  dE/ion   |   3.268164E-007 |   1.000000E-005 |         eV | Yes | <-- LBFGS
 |  |F|max   |   3.252412E-002 |   1.000000E-002 |       eV/A | No  | <-- LBFGS
 |  |dR|max  |   1.210565E-004 |   1.000000E-003 |          A | Yes | <-- LBFGS
 |   Smax    |   1.108488E-001 |   1.000000E-001 |        GPa | No  | <-- LBFGS
 +-----------+-----------------+-----------------+------------+-----+ <-- LBFGS
  

================================================================================
 Starting LBFGS iteration         24 ...
================================================================================
  
 +------------+-------------+-------------+-----------------+ <-- min LBFGS
 |    Step    |   lambda    |   F.delta'  |    enthalpy     | <-- min LBFGS
 +------------+-------------+-------------+-----------------+ <-- min LBFGS
 |  previous  |    0.000000 |    0.007363 |    -3089.369232 | <-- min LBFGS
 +------------+-------------+-------------+-----------------+ <-- min LBFGS
  

--------------------------------------------------------------------------------
 LBFGS: starting iteration        24 with trial guess (lambda=  1.000000)
--------------------------------------------------------------------------------

                           -------------------------------
                                      Unit Cell
                           -------------------------------
        Real Lattice(A)              Reciprocal Lattice(1/A)
     2.3859929     1.3775565     4.3358648        1.316680490   0.760184708   0.483040344
    -2.3859944     1.3775514     4.3358672       -1.316681601   0.760187482   0.483039005
    -0.0000051    -2.7551086     4.3358659        0.000001847  -1.520372220   0.483039546

                       Lattice parameters(A)       Cell Angles
                    a =      5.137154          alpha =   55.350275
                    b =      5.137155          beta  =   55.350393
                    c =      5.137155          gamma =   55.350332

                Current cell volume =            85.507671 A**3
                            density =             2.384845 amu/A**3
                                    =             3.960129 g/cm^3

                           -------------------------------
                                     Cell Contents
                           -------------------------------

            xxxxxxxxxxxxxxxxxxxxxxxxxxxxxxxxxxxxxxxxxxxxxxxxxxxxxxxxxxxxxxxxx
            x  Element         Atom        Fractional coordinates of atoms  x
            x                 Number           u          v          w      x
            x---------------------------------------------------------------x
            x  O                 1         0.555964   0.944025   0.250003   x
            x  O                 2         0.944034   0.249987   0.555967   x
            x  O                 3         0.249995   0.555980   0.944013   x
            x  O                 4         0.055996   0.750004   0.444012   x
            x  O                 5         0.750008   0.443998   0.056003   x
            x  O                 6         0.444002   0.056006   0.749999   x
            x  Al                1         0.147896   0.147896   0.147896   x
            x  Al                2         0.647895   0.647895   0.647895   x
            x  Al                3         0.852106   0.852105   0.852104   x
            x  Al                4         0.352105   0.352104   0.352105   x
            xxxxxxxxxxxxxxxxxxxxxxxxxxxxxxxxxxxxxxxxxxxxxxxxxxxxxxxxxxxxxxxxx


------------------------------------------------------------------------ <-- SCF
SCF loop      Energy           Fermi           Energy gain       Timer   <-- SCF
                               energy          per atom          (sec)   <-- SCF
------------------------------------------------------------------------ <-- SCF
Initial  -3.08936923E+003  0.00000000E+000                      3271.58  <-- SCF
      1  -3.08936924E+003  5.53522075E+000   1.09273495E-006    3275.61  <-- SCF
      2  -3.08936924E+003  5.53522064E+000   4.74658684E-007    3280.42  <-- SCF
      3  -3.08936924E+003  5.53669288E+000  -1.89290644E-007    3285.10  <-- SCF
      4  -3.08936924E+003  5.53728081E+000   2.04524072E-008    3289.81  <-- SCF
------------------------------------------------------------------------ <-- SCF
 
Final energy, E             =  -3089.369239388     eV
Final free energy (E-TS)    =  -3089.369239388     eV
(energies not corrected for finite basis set)
 
NB est. 0K energy (E-0.5TS)      =  -3089.369239388     eV
 

 ************************************** Forces **************************************
 *                                                                                  *
 *                           Cartesian components (eV/A)                            *
 * -------------------------------------------------------------------------------- *
 *                         x                    y                    z              *
 *                                                                                  *
 * O               1      0.00308              0.00272              0.00005         *
 * O               2     -0.00276             -0.00367              0.00053         *
 * O               3     -0.00172             -0.00085             -0.00030         *
 * O               4     -0.00067              0.00353             -0.00059         *
 * O               5      0.00250             -0.00074              0.00073         *
 * O               6     -0.00051             -0.00122              0.00048         *
 * Al              1      0.00015              0.00011              0.00290         *
 * Al              2      0.00037              0.00009              0.00268         *
 * Al              3     -0.00026             -0.00016             -0.00324         *
 * Al              4     -0.00019              0.00020             -0.00323         *
 *                                                                                  *
 ************************************************************************************

 ***************** Stress Tensor *****************
 *                                               *
 *          Cartesian components (GPa)           *
 * --------------------------------------------- *
 *             x             y             z     *
 *                                               *
 *  x     -0.044733      0.000099     -0.001017  *
 *  y      0.000099     -0.045195     -0.000035  *
 *  z     -0.001017     -0.000035     -0.062394  *
 *                                               *
 *  Pressure:    0.0508                          *
 *                                               *
 *************************************************
  
 +------------+-------------+-------------+-----------------+ <-- min LBFGS
 |    Step    |   lambda    |   F.delta'  |    enthalpy     | <-- min LBFGS
 +------------+-------------+-------------+-----------------+ <-- min LBFGS
 |  previous  |    0.000000 |    0.007363 |    -3089.369232 | <-- min LBFGS
 | trial step |    1.000000 |    0.001237 |    -3089.369239 | <-- min LBFGS
 +------------+-------------+-------------+-----------------+ <-- min LBFGS
  
 LBFGS: finished iteration    24 with enthalpy= -3.08936924E+003 eV
  
 +-----------+-----------------+-----------------+------------+-----+ <-- LBFGS
 | Parameter |      value      |    tolerance    |    units   | OK? | <-- LBFGS
 +-----------+-----------------+-----------------+------------+-----+ <-- LBFGS
 |  dE/ion   |   7.372162E-007 |   1.000000E-005 |         eV | Yes | <-- LBFGS
 |  |F|max   |   4.619555E-003 |   1.000000E-002 |       eV/A | Yes | <-- LBFGS
 |  |dR|max  |   4.163528E-005 |   1.000000E-003 |          A | Yes | <-- LBFGS
 |   Smax    |   6.239377E-002 |   1.000000E-001 |        GPa | Yes | <-- LBFGS
 +-----------+-----------------+-----------------+------------+-----+ <-- LBFGS
  
 LBFGS: Geometry optimization completed successfully.

================================================================================
 LBFGS: Final Configuration:
================================================================================

                           -------------------------------
                                      Unit Cell
                           -------------------------------
        Real Lattice(A)              Reciprocal Lattice(1/A)
     2.3859929     1.3775565     4.3358648        1.316680490   0.760184708   0.483040344
    -2.3859944     1.3775514     4.3358672       -1.316681601   0.760187482   0.483039005
    -0.0000051    -2.7551086     4.3358659        0.000001847  -1.520372220   0.483039546

                       Lattice parameters(A)       Cell Angles
                    a =      5.137154          alpha =   55.350275
                    b =      5.137155          beta  =   55.350393
                    c =      5.137155          gamma =   55.350332

                Current cell volume =            85.507671 A**3
                            density =             2.384845 amu/A**3
                                    =             3.960129 g/cm^3

                           -------------------------------
                                     Cell Contents
                           -------------------------------

            xxxxxxxxxxxxxxxxxxxxxxxxxxxxxxxxxxxxxxxxxxxxxxxxxxxxxxxxxxxxxxxxx
            x  Element         Atom        Fractional coordinates of atoms  x
            x                 Number           u          v          w      x
            x---------------------------------------------------------------x
            x  O                 1         0.555964   0.944025   0.250003   x
            x  O                 2         0.944034   0.249987   0.555967   x
            x  O                 3         0.249995   0.555980   0.944013   x
            x  O                 4         0.055996   0.750004   0.444012   x
            x  O                 5         0.750008   0.443998   0.056003   x
            x  O                 6         0.444002   0.056006   0.749999   x
            x  Al                1         0.147896   0.147896   0.147896   x
            x  Al                2         0.647895   0.647895   0.647895   x
            x  Al                3         0.852106   0.852105   0.852104   x
            x  Al                4         0.352105   0.352104   0.352105   x
            xxxxxxxxxxxxxxxxxxxxxxxxxxxxxxxxxxxxxxxxxxxxxxxxxxxxxxxxxxxxxxxxx


 LBFGS: Final Enthalpy     = -3.08936924E+003 eV
 LBFGS: Final <frequency>  =    1342.27788 cm-1
 LBFGS: Final bulk modulus =    1040.08969 GPa

 ************************************** Forces **************************************
 *                                                                                  *
 *                           Cartesian components (eV/A)                            *
 * -------------------------------------------------------------------------------- *
 *                         x                    y                    z              *
 *                                                                                  *
 * O               1      0.00308              0.00272              0.00005         *
 * O               2     -0.00276             -0.00367              0.00053         *
 * O               3     -0.00172             -0.00085             -0.00030         *
 * O               4     -0.00067              0.00353             -0.00059         *
 * O               5      0.00250             -0.00074              0.00073         *
 * O               6     -0.00051             -0.00122              0.00048         *
 * Al              1      0.00015              0.00011              0.00290         *
 * Al              2      0.00037              0.00009              0.00268         *
 * Al              3     -0.00026             -0.00016             -0.00324         *
 * Al              4     -0.00019              0.00020             -0.00323         *
 *                                                                                  *
 ************************************************************************************

 ***************** Stress Tensor *****************
 *                                               *
 *          Cartesian components (GPa)           *
 * --------------------------------------------- *
 *             x             y             z     *
 *                                               *
 *  x     -0.044733      0.000099     -0.001017  *
 *  y      0.000099     -0.045195     -0.000035  *
 *  z     -0.001017     -0.000035     -0.062394  *
 *                                               *
 *  Pressure:    0.0508                          *
 *                                               *
 *************************************************

 Pseudo atomic calculation performed for O 2s2 2p4

 Converged in 14 iterations to a total energy of -431.1322 eV

 Pseudo atomic calculation performed for Al 3s2 3p1

 Converged in 11 iterations to a total energy of -105.9172 eV
Charge spilling parameter for spin component 1 = 0.78%

            Orbital Populations       
     Ion    Atom   Orbital             Charge
  -------------------------------------------
      O     1      S                    1.833
      O     1      Px                   1.719
      O     1      Py                   1.754
      O     1      Pz                   1.743
      O     2      S                    1.833
      O     2      Px                   1.745
      O     2      Py                   1.728
      O     2      Pz                   1.742
      O     3      S                    1.833
      O     3      Px                   1.745
      O     3      Py                   1.728
      O     3      Pz                   1.743
      O     4      S                    1.833
      O     4      Px                   1.746
      O     4      Py                   1.728
      O     4      Pz                   1.743
      O     5      S                    1.833
      O     5      Px                   1.745
      O     5      Py                   1.728
      O     5      Pz                   1.743
      O     6      S                    1.833
      O     6      Px                   1.719
      O     6      Py                   1.754
      O     6      Pz                   1.743
     Al     1      S                    0.518
     Al     1      Px                   0.306
     Al     1      Py                   0.306
     Al     1      Pz                   0.298
     Al     2      S                    0.518
     Al     2      Px                   0.306
     Al     2      Py                   0.306
     Al     2      Pz                   0.298
     Al     3      S                    0.518
     Al     3      Px                   0.306
     Al     3      Py                   0.306
     Al     3      Pz                   0.298
     Al     4      S                    0.518
     Al     4      Px                   0.306
     Al     4      Py                   0.306
     Al     4      Pz                   0.298
  -------------------------------------------
                           Total:      47.999
  -------------------------------------------

     Atomic Populations (Mulliken)
     -----------------------------
Species          Ion     s      p      d      f     Total  Charge (e)
=====================================================================
  O               1     1.83   5.22   0.00   0.00   7.05    -1.05
  O               2     1.83   5.22   0.00   0.00   7.05    -1.05
  O               3     1.83   5.22   0.00   0.00   7.05    -1.05
  O               4     1.83   5.22   0.00   0.00   7.05    -1.05
  O               5     1.83   5.22   0.00   0.00   7.05    -1.05
  O               6     1.83   5.22   0.00   0.00   7.05    -1.05
  Al              1     0.52   0.91   0.00   0.00   1.43     1.57
  Al              2     0.52   0.91   0.00   0.00   1.43     1.57
  Al              3     0.52   0.91   0.00   0.00   1.43     1.57
  Al              4     0.52   0.91   0.00   0.00   1.43     1.57
=====================================================================

                 Bond                   Population      Length (A)
======================================================================
               O 5 -- Al 1                   0.36        1.86006
               O 4 -- Al 1                   0.36        1.86009
               O 6 -- Al 4                   0.36        1.86009
               O 6 -- Al 1                   0.36        1.86009
               O 3 -- Al 3                   0.36        1.86011
               O 2 -- Al 3                   0.36        1.86012
               O 5 -- Al 4                   0.36        1.86012
               O 4 -- Al 4                   0.36        1.86014
               O 3 -- Al 2                   0.36        1.86016
               O 1 -- Al 2                   0.36        1.86016
               O 1 -- Al 3                   0.36        1.86017
               O 2 -- Al 2                   0.36        1.86022
               O 2 -- Al 1                   0.26        1.97373
               O 1 -- Al 1                   0.26        1.97375
               O 3 -- Al 1                   0.26        1.97379
               O 2 -- Al 4                   0.26        1.97380
               O 1 -- Al 4                   0.26        1.97380
               O 4 -- Al 3                   0.26        1.97382
               O 3 -- Al 4                   0.26        1.97386
               O 5 -- Al 3                   0.26        1.97387
               O 6 -- Al 3                   0.26        1.97387
               O 4 -- Al 2                   0.26        1.97390
               O 6 -- Al 2                   0.26        1.97391
               O 5 -- Al 2                   0.26        1.97392
               O 1 -- O 2                   -0.17        2.52890
               O 2 -- O 3                   -0.17        2.52900
               O 1 -- O 3                   -0.17        2.52901
               O 4 -- O 5                   -0.17        2.52916
               O 4 -- O 6                   -0.17        2.52916
               O 5 -- O 6                   -0.17        2.52922
               O 2 -- O 4                   -0.16        2.62345
               O 3 -- O 5                   -0.16        2.62350
               O 1 -- O 6                   -0.16        2.62353
              Al 1 -- Al 4                  -0.52        2.65627
              Al 2 -- Al 3                  -0.52        2.65628
               O 1 -- O 4                   -0.10        2.73022
               O 2 -- O 5                   -0.10        2.73022
               O 3 -- O 6                   -0.10        2.73023
               O 3 -- O 4                   -0.10        2.73027
               O 2 -- O 6                   -0.10        2.73031
               O 1 -- O 5                   -0.10        2.73034
              Al 2 -- Al 4                  -0.65        2.79805
              Al 1 -- Al 3                  -0.65        2.79805
======================================================================


Writing analysis data to al2o3_xc-PBESOL_c-1000_k-5x5x5_geom.castep_bin

Writing model to al2o3_xc-PBESOL_c-1000_k-5x5x5_geom.check
 
 A BibTeX formatted list of references used in this run has been written to 
 al2o3_xc-PBESOL_c-1000_k-5x5x5_geom.bib
 
Initialisation time =      7.41 s
Calculation time    =   3312.87 s
Finalisation time   =      0.34 s
Total time          =   3320.62 s
Peak Memory Use     = 733140 kB
  
Overall parallel efficiency rating: Excellent (98%)                             
  
Data was distributed by:-
k-point (9-way); efficiency rating: Excellent (98%)                             
