 +-------------------------------------------------+
 |                                                 |
 |      CCC   AA    SSS  TTTTT  EEEEE  PPPP        |
 |     C     A  A  S       T    E      P   P       |
 |     C     AAAA   SS     T    EEE    PPPP        |
 |     C     A  A     S    T    E      P           |
 |      CCC  A  A  SSS     T    EEEEE  P           |
 |                                                 |
 +-------------------------------------------------+
 |                                                 |
 | Welcome to Academic Release CASTEP version 19.11|          
 | Ab Initio Total Energy Program                  |
 |                                                 |
 | Authors:                                        |
 | M. Segall, M. Probert, C. Pickard, P. Hasnip,   |
 | S. Clark, K. Refson, J. R. Yates, M. Payne      |
 |                                                 |
 | Contributors:                                   |
 | P. Lindan, P. Haynes, J. White, V. Milman,      |
 | N. Govind, M. Gibson, P. Tulip, V. Cocula,      |
 | B. Montanari, D. Quigley, M. Glover,            |
 | L. Bernasconi, A. Perlov, M. Plummer,           |
 | E. McNellis, J. Meyer, J. Gale, D. Jochym       |
 | J. Aarons, B. Walker, R. Gillen, D. Jones       |
 | T. Green, I. J. Bush, C. J. Armstrong,          |
 | E. J. Higgins, E. L. Brown, M. S. McFly,        |
 | J. Wilkins, B-C. Shih, P. J. P. Byrne           |
 |                                                 |
 | Copyright (c) 2000 - 2018                       |
 |                                                 |
 |     Distributed under the terms of an           |
 |     Agreement between the United Kingdom        |
 |     Car-Parrinello (UKCP) Consortium,           |
 |     Daresbury Laboratory and Accelrys, Inc.     |
 |                                                 |
 | Please cite                                     |
 |                                                 |
 |     "First principles methods using CASTEP"     |
 |                                                 |
 |         Zeitschrift fuer Kristallographie       |
 |           220(5-6) pp. 567-570 (2005)           |
 |                                                 |
 | S. J. Clark, M. D. Segall, C. J. Pickard,       |
 | P. J. Hasnip, M. J. Probert, K. Refson,         |
 | M. C. Payne                                     |
 |                                                 |
 |       in all publications arising from          |
 |              your use of CASTEP                 |
 |                                                 |
 +-------------------------------------------------+
 |                                                 |
 |              http://www.castep.org              |
 |                                                 |
 +-------------------------------------------------+



 Compiled for linux_x86_64_gfortran7.0 on Fri, 31 Jan 2020 20:20:28 +0100
 from code version e1fe0d666396+ Castep191_branch Thu, 24 Oct 2019 13:54:03 +0100
 Compiler: GNU Fortran 7.4.0; Optimisation: fast
 MATHLIBS: default (LAPACK version 3.7.1)
 FFT Lib : default
 Fundamental constants values: CODATA 2014

 Run started: Sat, 06 Nov 2021 00:13:46 +0100

 Atomic calculation performed for O: 1s2 2s2 2p4

 Converged in 60 iterations to an ae energy of -2027.926 eV

   ============================================================                
   | Pseudopotential Report - Date of generation  6-11-2021   |                
   ------------------------------------------------------------                
   | Element: O Ionic charge:  6.00 Level of theory: LDA      |                
   | Atomic Solver: Koelling-Harmon                           |                
   |                                                          |                
   |               Reference Electronic Structure             |                
   |         Orbital         Occupation         Energy        |                
   |            2s              2.000           -0.873        |                
   |            2p              4.000           -0.338        |                
   |                                                          |                
   |                 Pseudopotential Definition               |                
   |        Beta     l      e      Rc     scheme   norm       |                
   |          1      0   -0.873   1.100     qc      0         |                
   |          2      0    0.250   1.100     qc      0         |                
   |          3      1   -0.338   1.100     qc      0         |                
   |          4      1    0.250   1.100     qc      0         |                
   |         loc     2    0.000   1.100     pn      0         |                
   |                                                          |                
   | Augmentation charge Rinner = 0.769                       |                
   | Partial core correction Rc = 0.769                       |                
   ------------------------------------------------------------                
   | "2|1.1|17|20|23|20:21(qc=8)"                             |                
   ------------------------------------------------------------                
   |      Author: Chris J. Pickard, Cambridge University      |                
   ============================================================                

 Atomic calculation performed for Al: 1s2 2s2 2p6 3s2 3p1

 Converged in 55 iterations to an ae energy of -6578.725 eV

   ============================================================                
   | Pseudopotential Report - Date of generation  6-11-2021   |                
   ------------------------------------------------------------                
   | Element: Al Ionic charge:  3.00 Level of theory: LDA     |                
   | Atomic Solver: Koelling-Harmon                           |                
   |                                                          |                
   |               Reference Electronic Structure             |                
   |         Orbital         Occupation         Energy        |                
   |            3s              2.000           -0.288        |                
   |            3p              1.000           -0.102        |                
   |                                                          |                
   |                 Pseudopotential Definition               |                
   |        Beta     l      e      Rc     scheme   norm       |                
   |          1      0   -0.288   2.192     qc      0         |                
   |          2      0    0.250   2.192     qc      0         |                
   |          3      1   -0.102   2.192     qc      0         |                
   |          4      1    0.250   2.192     qc      0         |                
   |          5      2    0.000   2.000     qc      0         |                
   |          6      2    0.250   2.000     qc      0         |                
   |         loc     3    0.000   2.192     pn      0         |                
   |                                                          |                
   | Augmentation charge Rinner = 1.398                       |                
   | Partial core correction Rc = 1.398                       |                
   ------------------------------------------------------------                
   | "3|2.2|2.2|1.4|4|5|5|30:31:32U2U2"                       |                
   ------------------------------------------------------------                
   |      Author: Chris J. Pickard, Cambridge University      |                
   ============================================================                

 Pseudo atomic calculation performed for O 2s2 2p4

 Converged in 24 iterations to a total energy of -429.4809 eV

 Pseudo atomic calculation performed for Al 3s2 3p1

 Converged in 15 iterations to a total energy of -105.5951 eV
 Calculation parallelised over 9 processes.
 Data is distributed by k-point(9-way)

 ************************************ Title ************************************
 

 ***************************** General Parameters ******************************
  
 output verbosity                               : normal  (1)
 write checkpoint data to                       : al2o3_xc-LDA_c-0500_k-5x5x5_geom.check
 type of calculation                            : geometry optimization
 stress calculation                             : off
 density difference calculation                 : off
 electron localisation func (ELF) calculation   : off
 Hirshfeld analysis                             : off
 unlimited duration calculation
 timing information                             : on
 memory usage estimate                          : on
 write extra output files                       : on
 write final potential to formatted file        : off
 write final density to formatted file          : off
 write structure in CIF formatted file          : on
 write structure in CELL formatted file         : on
 write BibTeX reference list                    : on
 write OTFG pseudopotential files               : on
 write electrostatic potential file             : on
 write bands file                               : on
 checkpoint writing                             : both castep_bin and check files
  
 output         length unit                     : A
 output           mass unit                     : amu
 output           time unit                     : ps
 output         charge unit                     : e
 output           spin unit                     : hbar/2
 output         energy unit                     : eV
 output          force unit                     : eV/A
 output       velocity unit                     : A/ps
 output       pressure unit                     : GPa
 output     inv_length unit                     : 1/A
 output      frequency unit                     : cm-1
 output force constant unit                     : eV/A**2
 output         volume unit                     : A**3
 output   IR intensity unit                     : (D/A)**2/amu
 output         dipole unit                     : D
 output         efield unit                     : eV/A/e
 output        entropy unit                     : J/mol/K
  
 wavefunctions paging                           : none
 random number generator seed                   : randomised (1346333)
 data distribution                              : optimal for this architecture
 optimization strategy                          : maximize speed(+++)

 *********************** Exchange-Correlation Parameters ***********************
  
 using functional                               : Local Density Approximation
 relativistic treatment                         : Koelling-Harmon
 DFT+D: Semi-empirical dispersion correction    : off

 ************************* Pseudopotential Parameters **************************
  
 pseudopotential representation                 : reciprocal space
 <beta|phi> representation                      : reciprocal space
 spin-orbit coupling                            : off

 **************************** Basis Set Parameters *****************************
  
 plane wave basis set cut-off                   :   500.0000   eV
 size of standard grid                          :     1.7500
 size of   fine   gmax                          :    20.0476   1/A
 finite basis set correction                    : automatic
 number of sample energies                      :          3
           sample  spacing                      :     5.0000   eV

 **************************** Electronic Parameters ****************************
  
 number of  electrons                           :  48.00    
 net charge of system                           :  0.000    
 treating system as non-spin-polarized
 number of bands                                :         29

 ********************* Electronic Minimization Parameters **********************
  
 Method: Treating system as metallic with density mixing treatment of electrons,
         and number of  SD  steps               :          1
         and number of  CG  steps               :          4
  
 total energy / atom convergence tol.           : 0.1000E-04   eV
 eigen-energy convergence tolerance             : 0.1000E-05   eV
 max force / atom convergence tol.              : ignored
 convergence tolerance window                   :          3   cycles
 max. number of SCF cycles                      :         30
 number of fixed-spin iterations                :         10
 smearing scheme                                : Gaussian
 smearing width                                 : 0.2000       eV
 Fermi energy convergence tolerance             : 0.2721E-13   eV
 periodic dipole correction                     : NONE

 ************************** Density Mixing Parameters **************************
  
 density-mixing scheme                          : Broyden
 max. length of mixing history                  :         20
 charge density mixing amplitude                : 0.8000    
 cut-off energy for mixing                      :  500.0       eV

 *********************** Population Analysis Parameters ************************
  
 Population analysis with cutoff                :  3.000       A
 Population analysis output                     : summary and pdos components

 ********************** Geometry Optimization Parameters ***********************
  
 optimization method                            : LBFGS
 max. no. of LBFGS updates                      : unbounded
 variable cell method                           : fixed basis quality
 max. number of steps                           :        150
 estimated bulk modulus                         :  500.0       GPa
 estimated <frequency>                          :  1668.       cm-1
 geom line minimiser                            : on
 with line minimiser tolerance                  :     0.4000
 total energy convergence tolerance             : 0.1000E-04   eV/atom
        max ionic |force| tolerance             : 0.1000E-01   eV/A
 max ionic |displacement| tolerance             : 0.1000E-02   A
   max |stress component| tolerance             : 0.1000       GPa
 convergence tolerance window                   :          2   steps
 backup results every                           :          5   steps
 write geom trajectory file                     : on

 *******************************************************************************
  

                           -------------------------------
                                      Unit Cell
                           -------------------------------
        Real Lattice(A)                      Reciprocal Lattice(1/A)
     2.3801000     1.3741510     4.3310000        1.319941454   0.762068577   0.483582396
    -2.3801000     1.3741510     4.3310000       -1.319941454   0.762068577   0.483582396
     0.0000000    -2.7483030     4.3310000       -0.000000000  -1.524137154   0.483582220

                       Lattice parameters(A)       Cell Angles
                    a =      5.129398          alpha =   55.292535
                    b =      5.129398          beta  =   55.292535
                    c =      5.129399          gamma =   55.292537

                       Current cell volume =            84.990269       A**3
                                   density =             2.399364   AMU/A**3
                                           =             3.984237     g/cm^3

                           -------------------------------
                                     Cell Contents
                           -------------------------------
                         Total number of ions in cell =   10
                      Total number of species in cell =    2
                        Max number of any one species =    6

            xxxxxxxxxxxxxxxxxxxxxxxxxxxxxxxxxxxxxxxxxxxxxxxxxxxxxxxxxxxx
            x  Element    Atom        Fractional coordinates of atoms  x
            x            Number           u          v          w      x
            x----------------------------------------------------------x
            x  O            1         0.556260   0.943740   0.250000   x 
            x  O            2         0.943740   0.250000   0.556260   x 
            x  O            3         0.250000   0.556260   0.943740   x 
            x  O            4         0.056260   0.750000   0.443740   x 
            x  O            5         0.750000   0.443740   0.056260   x 
            x  O            6         0.443740   0.056260   0.750000   x 
            x  Al           1         0.147900   0.147900   0.147900   x 
            x  Al           2         0.647900   0.647900   0.647900   x 
            x  Al           3         0.852100   0.852100   0.852100   x 
            x  Al           4         0.352100   0.352100   0.352100   x 
            xxxxxxxxxxxxxxxxxxxxxxxxxxxxxxxxxxxxxxxxxxxxxxxxxxxxxxxxxxxx


                         No user defined ionic velocities

                           -------------------------------
                                   Details of Species
                           -------------------------------

                               Mass of species in AMU
                                    O   15.9994000
                                    Al   26.9815400

                          Electric Quadrupole Moment (Barn)
                                    O   -0.0255800 Isotope 17
                                    Al    0.1466000 Isotope 27

                          Files used for pseudopotentials:
                                    O 2|1.1|17|20|23|20:21(qc=8)
                                    Al 3|2.2|2.2|1.4|4|5|5|30:31:32U2U2

                           -------------------------------
                              k-Points For BZ Sampling
                           -------------------------------
                       MP grid size for SCF calculation is  5  5  5
                            with an offset of   0.000  0.000  0.000
                       Number of kpoints used =            63

                           -------------------------------
                               Symmetry and Constraints
                           -------------------------------

                      Maximum deviation from symmetry =  0.00000         ANG

                      Number of symmetry operations   =           1
                      Number of ionic constraints     =           3
                      Point group of crystal =     1: C1, 1, 1
                      Space group of crystal =   167: R-3c, -R 3 2"c

             Set iprint > 1 for details on symmetry rotations/translations

                         Centre of mass is constrained
             Set iprint > 1 for details of linear ionic constraints

                         Number of cell constraints= 0
                         Cell constraints are:  1 2 3 4 5 6

                         External pressure/stress (GPa)
                          0.00000   0.00000   0.00000
                                    0.00000   0.00000
                                              0.00000
  
+---------------- MEMORY AND SCRATCH DISK ESTIMATES PER PROCESS --------------+
|                                                     Memory          Disk    |
| Baseline code, static data and system overhead      196.0 MB         0.0 MB |
| BLAS internal memory storage                          0.0 MB         0.0 MB |
| Model and support data                              123.3 MB         0.0 MB |
| Electronic energy minimisation requirements          27.7 MB         0.0 MB |
| Force calculation requirements                        6.8 MB         0.0 MB |
|                                               ----------------------------- |
| Approx. total storage required per process          347.1 MB         0.0 MB |
|                                                                             |
| Requirements will fluctuate during execution and may exceed these estimates |
+-----------------------------------------------------------------------------+
Calculating finite basis set correction with  3 cut-off energies.
Calculating total energy with cut-off of  490.000 eV.
------------------------------------------------------------------------ <-- SCF
SCF loop      Energy           Fermi           Energy gain       Timer   <-- SCF
                               energy          per atom          (sec)   <-- SCF
------------------------------------------------------------------------ <-- SCF
Initial  -2.23231025E+003  0.00000000E+000                         8.52  <-- SCF
      1  -2.91255022E+003  1.18447019E+001   6.80239969E+001      10.65  <-- SCF
      2  -3.08150434E+003  3.29717195E+000   1.68954120E+001      12.57  <-- SCF
      3  -3.08545817E+003  3.32846594E+000   3.95382661E-001      14.22  <-- SCF
      4  -3.08128191E+003  7.10622007E+000  -4.17625808E-001      16.33  <-- SCF
      5  -3.07816561E+003  5.65549802E+000  -3.11629987E-001      18.34  <-- SCF
      6  -3.07815358E+003  5.74671136E+000  -1.20266491E-003      20.50  <-- SCF
      7  -3.07815171E+003  5.79923979E+000  -1.86639560E-004      22.54  <-- SCF
      8  -3.07815169E+003  5.79530596E+000  -2.17482479E-006      24.23  <-- SCF
      9  -3.07815170E+003  5.79473525E+000   3.40572138E-007      25.76  <-- SCF
------------------------------------------------------------------------ <-- SCF
 
Final energy, E             =  -3078.151696350     eV
Final free energy (E-TS)    =  -3078.151696350     eV
(energies not corrected for finite basis set)
 
NB est. 0K energy (E-0.5TS)      =  -3078.151696350     eV
 
Calculating total energy with cut-off of  495.000 eV.
------------------------------------------------------------------------ <-- SCF
SCF loop      Energy           Fermi           Energy gain       Timer   <-- SCF
                               energy          per atom          (sec)   <-- SCF
------------------------------------------------------------------------ <-- SCF
Initial  -3.07815169E+003  0.00000000E+000                        26.45  <-- SCF
      1  -3.07939600E+003  5.77265821E+000   1.24430633E-001      28.02  <-- SCF
      2  -3.07939734E+003  5.77282188E+000   1.33732695E-004      30.05  <-- SCF
      3  -3.07939654E+003  5.83372218E+000  -7.97068425E-005      32.09  <-- SCF
      4  -3.07939547E+003  5.80561958E+000  -1.06855755E-004      34.10  <-- SCF
      5  -3.07939549E+003  5.80609590E+000   1.51088072E-006      35.51  <-- SCF
      6  -3.07939549E+003  5.80656975E+000   4.62237936E-008      36.92  <-- SCF
------------------------------------------------------------------------ <-- SCF
 
Final energy, E             =  -3079.395488259     eV
Final free energy (E-TS)    =  -3079.395488259     eV
(energies not corrected for finite basis set)
 
NB est. 0K energy (E-0.5TS)      =  -3079.395488259     eV
 
Calculating total energy with cut-off of  500.000 eV.
------------------------------------------------------------------------ <-- SCF
SCF loop      Energy           Fermi           Energy gain       Timer   <-- SCF
                               energy          per atom          (sec)   <-- SCF
------------------------------------------------------------------------ <-- SCF
Initial  -3.07939549E+003  0.00000000E+000                        37.61  <-- SCF
      1  -3.08050415E+003  5.63561467E+000   1.10866292E-001      39.19  <-- SCF
      2  -3.08050524E+003  5.63577820E+000   1.09292998E-004      41.29  <-- SCF
      3  -3.08050462E+003  5.68977369E+000  -6.18966436E-005      43.36  <-- SCF
      4  -3.08050379E+003  5.66484377E+000  -8.35683031E-005      45.36  <-- SCF
      5  -3.08050380E+003  5.66529172E+000   1.24256749E-006      46.67  <-- SCF
      6  -3.08050380E+003  5.66573558E+000   3.77533107E-008      47.97  <-- SCF
------------------------------------------------------------------------ <-- SCF
 
Final energy, E             =  -3080.503801536     eV
Final free energy (E-TS)    =  -3080.503801536     eV
(energies not corrected for finite basis set)
 
NB est. 0K energy (E-0.5TS)      =  -3080.503801536     eV
 
 For future reference: finite basis dEtot/dlog(Ecut) =    -118.274145eV
 Total energy corrected for finite basis set =   -3080.540680 eV
 
+---------------- MEMORY AND SCRATCH DISK ESTIMATES PER PROCESS --------------+
|                                                     Memory          Disk    |
| Model and support data                              133.1 MB         0.0 MB |
| Electronic energy minimisation requirements          27.7 MB         0.0 MB |
| Geometry minimisation requirements                   35.6 MB         0.0 MB |
|                                               ----------------------------- |
| Approx. total storage required per process          196.5 MB         0.0 MB |
|                                                                             |
| Requirements will fluctuate during execution and may exceed these estimates |
+-----------------------------------------------------------------------------+
 

 ************************************** Forces **************************************
 *                                                                                  *
 *                           Cartesian components (eV/A)                            *
 * -------------------------------------------------------------------------------- *
 *                         x                    y                    z              *
 *                                                                                  *
 * O               1     -0.40567              0.00001             -0.00001         *
 * O               2      0.20282              0.35131              0.00000         *
 * O               3      0.20282             -0.35131              0.00000         *
 * O               4     -0.20282             -0.35131             -0.00000         *
 * O               5     -0.20282              0.35131              0.00000         *
 * O               6      0.40566             -0.00001              0.00000         *
 * Al              1     -0.00000              0.00001              0.05610         *
 * Al              2      0.00000             -0.00000              0.05610         *
 * Al              3      0.00000             -0.00001             -0.05610         *
 * Al              4     -0.00000              0.00000             -0.05611         *
 *                                                                                  *
 ************************************************************************************

 ***************** Stress Tensor *****************
 *                                               *
 *          Cartesian components (GPa)           *
 * --------------------------------------------- *
 *             x             y             z     *
 *                                               *
 *  x     -8.035507      0.000004     -0.000009  *
 *  y      0.000004     -8.035570     -0.000037  *
 *  z     -0.000009     -0.000037     -5.611507  *
 *                                               *
 *  Pressure:    7.2275                          *
 *                                               *
 *************************************************
 LBFGS: finished iteration     0 with enthalpy= -3.08054068E+003 eV
  
 +-----------+-----------------+-----------------+------------+-----+ <-- LBFGS
 | Parameter |      value      |    tolerance    |    units   | OK? | <-- LBFGS
 +-----------+-----------------+-----------------+------------+-----+ <-- LBFGS
 |  dE/ion   |   0.000000E+000 |   1.000000E-005 |         eV | No  | <-- LBFGS
 |  |F|max   |   4.056656E-001 |   1.000000E-002 |       eV/A | No  | <-- LBFGS
 |  |dR|max  |   0.000000E+000 |   1.000000E-003 |          A | No  | <-- LBFGS
 |   Smax    |   8.035570E+000 |   1.000000E-001 |        GPa | No  | <-- LBFGS
 +-----------+-----------------+-----------------+------------+-----+ <-- LBFGS
  

================================================================================
 Starting LBFGS iteration          1 ...
================================================================================
  
 +------------+-------------+-------------+-----------------+ <-- min LBFGS
 |    Step    |   lambda    |   F.delta'  |    enthalpy     | <-- min LBFGS
 +------------+-------------+-------------+-----------------+ <-- min LBFGS
 |  previous  |    0.000000 |    0.264229 |    -3080.540680 | <-- min LBFGS
 +------------+-------------+-------------+-----------------+ <-- min LBFGS
  

--------------------------------------------------------------------------------
 LBFGS: starting iteration         1 with trial guess (lambda=  1.000000)
--------------------------------------------------------------------------------
 
+---------------- MEMORY AND SCRATCH DISK ESTIMATES PER PROCESS --------------+
|                                                     Memory          Disk    |
| Model and support data                              133.4 MB         0.0 MB |
| Electronic energy minimisation requirements          28.2 MB         0.0 MB |
| Geometry minimisation requirements                   36.2 MB         0.0 MB |
|                                               ----------------------------- |
| Approx. total storage required per process          197.8 MB         0.0 MB |
|                                                                             |
| Requirements will fluctuate during execution and may exceed these estimates |
+-----------------------------------------------------------------------------+
 

                           -------------------------------
                                      Unit Cell
                           -------------------------------
        Real Lattice(A)              Reciprocal Lattice(1/A)
     2.3928502     1.3815125     4.3472023        1.312908197   0.758007885   0.481780028
    -2.3928502     1.3815125     4.3472023       -1.312908199   0.758007878   0.481780044
     0.0000000    -2.7630257     4.3472022       -0.000000007  -1.516015798   0.481779916

                       Lattice parameters(A)       Cell Angles
                    a =      5.150969          alpha =   55.361396
                    b =      5.150969          beta  =   55.361395
                    c =      5.150969          gamma =   55.361396

                Current cell volume =            86.224662 A**3
                            density =             2.365014 amu/A**3
                                    =             3.927199 g/cm^3

                           -------------------------------
                                     Cell Contents
                           -------------------------------

            xxxxxxxxxxxxxxxxxxxxxxxxxxxxxxxxxxxxxxxxxxxxxxxxxxxxxxxxxxxxxxxxx
            x  Element         Atom        Fractional coordinates of atoms  x
            x                 Number           u          v          w      x
            x---------------------------------------------------------------x
            x  O                 1         0.555852   0.944149   0.250000   x
            x  O                 2         0.944149   0.250000   0.555851   x
            x  O                 3         0.250000   0.555851   0.944148   x
            x  O                 4         0.055851   0.750000   0.444149   x
            x  O                 5         0.750000   0.444149   0.055851   x
            x  O                 6         0.444149   0.055852   0.750000   x
            x  Al                1         0.147921   0.147921   0.147921   x
            x  Al                2         0.647921   0.647921   0.647921   x
            x  Al                3         0.852079   0.852079   0.852079   x
            x  Al                4         0.352079   0.352079   0.352079   x
            xxxxxxxxxxxxxxxxxxxxxxxxxxxxxxxxxxxxxxxxxxxxxxxxxxxxxxxxxxxxxxxxx


------------------------------------------------------------------------ <-- SCF
SCF loop      Energy           Fermi           Energy gain       Timer   <-- SCF
                               energy          per atom          (sec)   <-- SCF
------------------------------------------------------------------------ <-- SCF
Initial  -3.07919141E+003  0.00000000E+000                        55.09  <-- SCF
      1  -3.08069472E+003  5.21137150E+000   1.50331302E-001      56.69  <-- SCF
      2  -3.08070591E+003  5.21131629E+000   1.11835227E-003      58.87  <-- SCF
      3  -3.08062771E+003  5.77372048E+000  -7.82014518E-003      60.92  <-- SCF
      4  -3.08053923E+003  5.52495843E+000  -8.84763910E-003      62.94  <-- SCF
      5  -3.08053959E+003  5.52833166E+000   3.63604793E-005      65.07  <-- SCF
      6  -3.08053958E+003  5.53171510E+000  -1.60286853E-006      66.67  <-- SCF
      7  -3.08053958E+003  5.53238844E+000   4.71785100E-008      68.10  <-- SCF
------------------------------------------------------------------------ <-- SCF
 
Final energy, E             =  -3080.539577206     eV
Final free energy (E-TS)    =  -3080.539577206     eV
(energies not corrected for finite basis set)
 
NB est. 0K energy (E-0.5TS)      =  -3080.539577206     eV
 

 ************************************** Forces **************************************
 *                                                                                  *
 *                           Cartesian components (eV/A)                            *
 * -------------------------------------------------------------------------------- *
 *                         x                    y                    z              *
 *                                                                                  *
 * O               1     -0.38296             -0.00000             -0.00001         *
 * O               2      0.19148              0.33167             -0.00000         *
 * O               3      0.19151             -0.33172              0.00001         *
 * O               4     -0.19152             -0.33172             -0.00000         *
 * O               5     -0.19158              0.33181              0.00001         *
 * O               6      0.38310             -0.00000             -0.00000         *
 * Al              1     -0.00003              0.00002              0.02325         *
 * Al              2     -0.00001             -0.00003              0.02331         *
 * Al              3     -0.00000             -0.00001             -0.02331         *
 * Al              4      0.00000              0.00000             -0.02326         *
 *                                                                                  *
 ************************************************************************************

 ***************** Stress Tensor *****************
 *                                               *
 *          Cartesian components (GPa)           *
 * --------------------------------------------- *
 *             x             y             z     *
 *                                               *
 *  x     -4.925472     -0.000016      0.000094  *
 *  y     -0.000016     -4.925479     -0.000005  *
 *  z      0.000094     -0.000005     -3.314927  *
 *                                               *
 *  Pressure:    4.3886                          *
 *                                               *
 *************************************************
  
 +------------+-------------+-------------+-----------------+ <-- min LBFGS
 |    Step    |   lambda    |   F.delta'  |    enthalpy     | <-- min LBFGS
 +------------+-------------+-------------+-----------------+ <-- min LBFGS
 |  previous  |    0.000000 |    0.264229 |    -3080.540680 | <-- min LBFGS
 | trial step |    1.000000 |    0.169077 |    -3080.511484 | <-- min LBFGS
 +------------+-------------+-------------+-----------------+ <-- min LBFGS
  

--------------------------------------------------------------------------------
 LBFGS: improving iteration         1 with line minimization (lambda=  2.776909)
--------------------------------------------------------------------------------
 
+---------------- MEMORY AND SCRATCH DISK ESTIMATES PER PROCESS --------------+
|                                                     Memory          Disk    |
| Model and support data                              133.6 MB         0.0 MB |
| Electronic energy minimisation requirements          28.7 MB         0.0 MB |
| Geometry minimisation requirements                   36.9 MB         0.0 MB |
|                                               ----------------------------- |
| Approx. total storage required per process          199.2 MB         0.0 MB |
|                                                                             |
| Requirements will fluctuate during execution and may exceed these estimates |
+-----------------------------------------------------------------------------+
 

                           -------------------------------
                                      Unit Cell
                           -------------------------------
        Real Lattice(A)              Reciprocal Lattice(1/A)
     2.4155062     1.3945932     4.3759924        1.300593926   0.750898170   0.478610312
    -2.4155061     1.3945932     4.3759923       -1.300593932   0.750898151   0.478610357
     0.0000001    -2.7891865     4.3759921       -0.000000019  -1.501796416   0.478610312

                       Lattice parameters(A)       Cell Angles
                    a =      5.189303          alpha =   55.482319
                    b =      5.189303          beta  =   55.482317
                    c =      5.189303          gamma =   55.482314

                Current cell volume =            88.447082 A**3
                            density =             2.305588 amu/A**3
                                    =             3.828519 g/cm^3

                           -------------------------------
                                     Cell Contents
                           -------------------------------

            xxxxxxxxxxxxxxxxxxxxxxxxxxxxxxxxxxxxxxxxxxxxxxxxxxxxxxxxxxxxxxxxx
            x  Element         Atom        Fractional coordinates of atoms  x
            x                 Number           u          v          w      x
            x---------------------------------------------------------------x
            x  O                 1         0.555126   0.944875   0.250000   x
            x  O                 2         0.944875   0.250000   0.555125   x
            x  O                 3         0.250000   0.555126   0.944874   x
            x  O                 4         0.055125   0.750000   0.444874   x
            x  O                 5         0.750000   0.444875   0.055125   x
            x  O                 6         0.444875   0.055126   0.750000   x
            x  Al                1         0.147958   0.147958   0.147957   x
            x  Al                2         0.647958   0.647958   0.647957   x
            x  Al                3         0.852043   0.852043   0.852042   x
            x  Al                4         0.352043   0.352043   0.352042   x
            xxxxxxxxxxxxxxxxxxxxxxxxxxxxxxxxxxxxxxxxxxxxxxxxxxxxxxxxxxxxxxxxx


------------------------------------------------------------------------ <-- SCF
SCF loop      Energy           Fermi           Energy gain       Timer   <-- SCF
                               energy          per atom          (sec)   <-- SCF
------------------------------------------------------------------------ <-- SCF
Initial  -3.07787172E+003  0.00000000E+000                        75.25  <-- SCF
      1  -3.08086257E+003  4.71201398E+000   2.99084773E-001      76.99  <-- SCF
      2  -3.08089477E+003  4.71208966E+000   3.21981367E-003      79.20  <-- SCF
      3  -3.08066266E+003  5.71366314E+000  -2.32106201E-002      81.27  <-- SCF
      4  -3.08038043E+003  5.27012450E+000  -2.82235576E-002      83.30  <-- SCF
      5  -3.08038151E+003  5.27739253E+000   1.08385521E-004      85.51  <-- SCF
      6  -3.08038146E+003  5.28399510E+000  -5.64441971E-006      87.22  <-- SCF
      7  -3.08038146E+003  5.28502684E+000   2.00003892E-007      88.65  <-- SCF
------------------------------------------------------------------------ <-- SCF
 
Final energy, E             =  -3080.381457097     eV
Final free energy (E-TS)    =  -3080.381457097     eV
(energies not corrected for finite basis set)
 
NB est. 0K energy (E-0.5TS)      =  -3080.381457097     eV
 

 ************************************** Forces **************************************
 *                                                                                  *
 *                           Cartesian components (eV/A)                            *
 * -------------------------------------------------------------------------------- *
 *                         x                    y                    z              *
 *                                                                                  *
 * O               1     -0.35221             -0.00001             -0.00001         *
 * O               2      0.17611              0.30504              0.00000         *
 * O               3      0.17613             -0.30509              0.00001         *
 * O               4     -0.17618             -0.30515             -0.00000         *
 * O               5     -0.17625              0.30525              0.00001         *
 * O               6      0.35245             -0.00000             -0.00001         *
 * Al              1     -0.00003              0.00002             -0.02418         *
 * Al              2     -0.00001             -0.00003             -0.02408         *
 * Al              3     -0.00001             -0.00002              0.02408         *
 * Al              4      0.00001             -0.00000              0.02417         *
 *                                                                                  *
 ************************************************************************************

 ***************** Stress Tensor *****************
 *                                               *
 *          Cartesian components (GPa)           *
 * --------------------------------------------- *
 *             x             y             z     *
 *                                               *
 *  x      1.432676     -0.000042      0.000082  *
 *  y     -0.000042      1.432762     -0.000001  *
 *  z      0.000082     -0.000001      1.249446  *
 *                                               *
 *  Pressure:   -1.3716                          *
 *                                               *
 *************************************************
  
 +------------+-------------+-------------+-----------------+ <-- min LBFGS
 |    Step    |   lambda    |   F.delta'  |    enthalpy     | <-- min LBFGS
 +------------+-------------+-------------+-----------------+ <-- min LBFGS
 |  previous  |    0.000000 |    0.264229 |    -3080.540680 | <-- min LBFGS
 | trial step |    1.000000 |    0.169077 |    -3080.511484 | <-- min LBFGS
 |  line step |    2.776909 |   -0.028986 |    -3080.404120 | <-- min LBFGS
 +------------+-------------+-------------+-----------------+ <-- min LBFGS
  
 LBFGS: finished iteration     1 with enthalpy= -3.08040412E+003 eV
  
 +-----------+-----------------+-----------------+------------+-----+ <-- LBFGS
 | Parameter |      value      |    tolerance    |    units   | OK? | <-- LBFGS
 +-----------+-----------------+-----------------+------------+-----+ <-- LBFGS
 |  dE/ion   |   1.365601E-002 |   1.000000E-005 |         eV | No  | <-- LBFGS
 |  |F|max   |   3.524782E-001 |   1.000000E-002 |       eV/A | No  | <-- LBFGS
 |  |dR|max  |   5.480738E-003 |   1.000000E-003 |          A | No  | <-- LBFGS
 |   Smax    |   1.432762E+000 |   1.000000E-001 |        GPa | No  | <-- LBFGS
 +-----------+-----------------+-----------------+------------+-----+ <-- LBFGS
  

================================================================================
 Starting LBFGS iteration          2 ...
================================================================================
  
 +------------+-------------+-------------+-----------------+ <-- min LBFGS
 |    Step    |   lambda    |   F.delta'  |    enthalpy     | <-- min LBFGS
 +------------+-------------+-------------+-----------------+ <-- min LBFGS
 |  previous  |    0.000000 |    0.085083 |    -3080.404120 | <-- min LBFGS
 +------------+-------------+-------------+-----------------+ <-- min LBFGS
  

--------------------------------------------------------------------------------
 LBFGS: starting iteration         2 with trial guess (lambda=  1.000000)
--------------------------------------------------------------------------------
 
+---------------- MEMORY AND SCRATCH DISK ESTIMATES PER PROCESS --------------+
|                                                     Memory          Disk    |
| Model and support data                              134.0 MB         0.0 MB |
| Electronic energy minimisation requirements          28.6 MB         0.0 MB |
| Geometry minimisation requirements                   36.8 MB         0.0 MB |
|                                               ----------------------------- |
| Approx. total storage required per process          199.4 MB         0.0 MB |
|                                                                             |
| Requirements will fluctuate during execution and may exceed these estimates |
+-----------------------------------------------------------------------------+
 

                           -------------------------------
                                      Unit Cell
                           -------------------------------
        Real Lattice(A)              Reciprocal Lattice(1/A)
     2.4120163     1.3925783     4.3708786        1.302475674   0.751984604   0.479170324
    -2.4120165     1.3925782     4.3708788       -1.302475670   0.751984653   0.479170237
    -0.0000002    -2.7851567     4.3708785        0.000000044  -1.503969350   0.479170254

                       Lattice parameters(A)       Cell Angles
                    a =      5.182825          alpha =   55.470464
                    b =      5.182825          beta  =   55.470467
                    c =      5.182825          gamma =   55.470463

                Current cell volume =            88.088636 A**3
                            density =             2.314970 amu/A**3
                                    =             3.844098 g/cm^3

                           -------------------------------
                                     Cell Contents
                           -------------------------------

            xxxxxxxxxxxxxxxxxxxxxxxxxxxxxxxxxxxxxxxxxxxxxxxxxxxxxxxxxxxxxxxxx
            x  Element         Atom        Fractional coordinates of atoms  x
            x                 Number           u          v          w      x
            x---------------------------------------------------------------x
            x  O                 1         0.554846   0.945154   0.250000   x
            x  O                 2         0.945155   0.250000   0.554845   x
            x  O                 3         0.250000   0.554846   0.945154   x
            x  O                 4         0.054845   0.750000   0.445154   x
            x  O                 5         0.750000   0.445155   0.054845   x
            x  O                 6         0.445155   0.054846   0.750000   x
            x  Al                1         0.147947   0.147947   0.147947   x
            x  Al                2         0.647947   0.647947   0.647947   x
            x  Al                3         0.852053   0.852053   0.852053   x
            x  Al                4         0.352053   0.352053   0.352053   x
            xxxxxxxxxxxxxxxxxxxxxxxxxxxxxxxxxxxxxxxxxxxxxxxxxxxxxxxxxxxxxxxxx


------------------------------------------------------------------------ <-- SCF
SCF loop      Energy           Fermi           Energy gain       Timer   <-- SCF
                               energy          per atom          (sec)   <-- SCF
------------------------------------------------------------------------ <-- SCF
Initial  -3.08040715E+003  0.00000000E+000                        95.78  <-- SCF
      1  -3.08044530E+003  5.36188429E+000   3.81524334E-003      97.57  <-- SCF
      2  -3.08044568E+003  5.36188052E+000   3.79248089E-005      99.75  <-- SCF
      3  -3.08043782E+003  5.25471678E+000  -7.85929694E-004     102.01  <-- SCF
      4  -3.08043404E+003  5.31119524E+000  -3.78060850E-004     104.07  <-- SCF
      5  -3.08043401E+003  5.30772076E+000  -3.14365760E-006     105.87  <-- SCF
      6  -3.08043401E+003  5.30624522E+000   1.59836548E-007     107.24  <-- SCF
------------------------------------------------------------------------ <-- SCF
 
Final energy, E             =  -3080.434009705     eV
Final free energy (E-TS)    =  -3080.434009705     eV
(energies not corrected for finite basis set)
 
NB est. 0K energy (E-0.5TS)      =  -3080.434009705     eV
 

 ************************************** Forces **************************************
 *                                                                                  *
 *                           Cartesian components (eV/A)                            *
 * -------------------------------------------------------------------------------- *
 *                         x                    y                    z              *
 *                                                                                  *
 * O               1     -0.31869              0.00000             -0.00000         *
 * O               2      0.15934              0.27599             -0.00000         *
 * O               3      0.15933             -0.27599              0.00000         *
 * O               4     -0.15933             -0.27598              0.00000         *
 * O               5     -0.15933              0.27597             -0.00000         *
 * O               6      0.31867             -0.00001             -0.00000         *
 * Al              1      0.00001              0.00001             -0.02256         *
 * Al              2     -0.00000              0.00000             -0.02256         *
 * Al              3     -0.00000             -0.00000              0.02256         *
 * Al              4      0.00001              0.00000              0.02256         *
 *                                                                                  *
 ************************************************************************************

 ***************** Stress Tensor *****************
 *                                               *
 *          Cartesian components (GPa)           *
 * --------------------------------------------- *
 *             x             y             z     *
 *                                               *
 *  x      0.250002      0.000020     -0.000027  *
 *  y      0.000020      0.249977      0.000031  *
 *  z     -0.000027      0.000031      0.374139  *
 *                                               *
 *  Pressure:   -0.2914                          *
 *                                               *
 *************************************************
  
 +------------+-------------+-------------+-----------------+ <-- min LBFGS
 |    Step    |   lambda    |   F.delta'  |    enthalpy     | <-- min LBFGS
 +------------+-------------+-------------+-----------------+ <-- min LBFGS
 |  previous  |    0.000000 |    0.085083 |    -3080.404120 | <-- min LBFGS
 | trial step |    1.000000 |    0.046126 |    -3080.428509 | <-- min LBFGS
 +------------+-------------+-------------+-----------------+ <-- min LBFGS
  

--------------------------------------------------------------------------------
 LBFGS: improving iteration         2 with line minimization (lambda=  2.184034)
--------------------------------------------------------------------------------

                           -------------------------------
                                      Unit Cell
                           -------------------------------
        Real Lattice(A)              Reciprocal Lattice(1/A)
     2.4078840     1.3901927     4.3648238        1.304710780   0.753275051   0.479835095
    -2.4078847     1.3901924     4.3648242       -1.304710766   0.753275181   0.479834850
    -0.0000005    -2.7803853     4.3648237        0.000000120  -1.506550322   0.479834940

                       Lattice parameters(A)       Cell Angles
                    a =      5.175155          alpha =   55.456388
                    b =      5.175155          beta  =   55.456397
                    c =      5.175155          gamma =   55.456393

                Current cell volume =            87.665473 A**3
                            density =             2.326145 amu/A**3
                                    =             3.862654 g/cm^3

                           -------------------------------
                                     Cell Contents
                           -------------------------------

            xxxxxxxxxxxxxxxxxxxxxxxxxxxxxxxxxxxxxxxxxxxxxxxxxxxxxxxxxxxxxxxxx
            x  Element         Atom        Fractional coordinates of atoms  x
            x                 Number           u          v          w      x
            x---------------------------------------------------------------x
            x  O                 1         0.554514   0.945486   0.250000   x
            x  O                 2         0.945486   0.250000   0.554514   x
            x  O                 3         0.250000   0.554514   0.945486   x
            x  O                 4         0.054514   0.750000   0.445486   x
            x  O                 5         0.750000   0.445486   0.054514   x
            x  O                 6         0.445486   0.054514   0.750000   x
            x  Al                1         0.147935   0.147935   0.147935   x
            x  Al                2         0.647935   0.647935   0.647935   x
            x  Al                3         0.852065   0.852065   0.852065   x
            x  Al                4         0.352065   0.352065   0.352065   x
            xxxxxxxxxxxxxxxxxxxxxxxxxxxxxxxxxxxxxxxxxxxxxxxxxxxxxxxxxxxxxxxxx


------------------------------------------------------------------------ <-- SCF
SCF loop      Energy           Fermi           Energy gain       Timer   <-- SCF
                               energy          per atom          (sec)   <-- SCF
------------------------------------------------------------------------ <-- SCF
Initial  -3.08038975E+003  0.00000000E+000                       114.38  <-- SCF
      1  -3.08044158E+003  5.39841234E+000   5.18277075E-003     116.17  <-- SCF
      2  -3.08044209E+003  5.39840639E+000   5.08008822E-005     118.34  <-- SCF
      3  -3.08043137E+003  5.27747578E+000  -1.07123823E-003     120.44  <-- SCF
      4  -3.08042663E+003  5.34092961E+000  -4.74848109E-004     122.48  <-- SCF
      5  -3.08042658E+003  5.33646947E+000  -4.70566548E-006     124.39  <-- SCF
      6  -3.08042658E+003  5.33493883E+000   9.34105402E-008     125.80  <-- SCF
------------------------------------------------------------------------ <-- SCF
 
Final energy, E             =  -3080.426579987     eV
Final free energy (E-TS)    =  -3080.426579987     eV
(energies not corrected for finite basis set)
 
NB est. 0K energy (E-0.5TS)      =  -3080.426579987     eV
 

 ************************************** Forces **************************************
 *                                                                                  *
 *                           Cartesian components (eV/A)                            *
 * -------------------------------------------------------------------------------- *
 *                         x                    y                    z              *
 *                                                                                  *
 * O               1     -0.26910              0.00000             -0.00000         *
 * O               2      0.13455              0.23304             -0.00000         *
 * O               3      0.13454             -0.23304              0.00000         *
 * O               4     -0.13453             -0.23302              0.00000         *
 * O               5     -0.13452              0.23300              0.00000         *
 * O               6      0.26906             -0.00000             -0.00000         *
 * Al              1      0.00001              0.00001             -0.02125         *
 * Al              2      0.00000              0.00000             -0.02127         *
 * Al              3     -0.00000             -0.00000              0.02127         *
 * Al              4      0.00001              0.00000              0.02125         *
 *                                                                                  *
 ************************************************************************************

 ***************** Stress Tensor *****************
 *                                               *
 *          Cartesian components (GPa)           *
 * --------------------------------------------- *
 *             x             y             z     *
 *                                               *
 *  x     -0.596100      0.000031     -0.000070  *
 *  y      0.000031     -0.596151      0.000021  *
 *  z     -0.000070      0.000021     -0.327916  *
 *                                               *
 *  Pressure:    0.5067                          *
 *                                               *
 *************************************************
  
 +------------+-------------+-------------+-----------------+ <-- min LBFGS
 |    Step    |   lambda    |   F.delta'  |    enthalpy     | <-- min LBFGS
 +------------+-------------+-------------+-----------------+ <-- min LBFGS
 |  previous  |    0.000000 |    0.085083 |    -3080.404120 | <-- min LBFGS
 | trial step |    1.000000 |    0.046126 |    -3080.428509 | <-- min LBFGS
 |  line step |    2.184034 |    0.014734 |    -3080.463751 | <-- min LBFGS
 +------------+-------------+-------------+-----------------+ <-- min LBFGS
  
 LBFGS: finished iteration     2 with enthalpy= -3.08046375E+003 eV
  
 +-----------+-----------------+-----------------+------------+-----+ <-- LBFGS
 | Parameter |      value      |    tolerance    |    units   | OK? | <-- LBFGS
 +-----------+-----------------+-----------------+------------+-----+ <-- LBFGS
 |  dE/ion   |   5.963130E-003 |   1.000000E-005 |         eV | No  | <-- LBFGS
 |  |F|max   |   2.691016E-001 |   1.000000E-002 |       eV/A | No  | <-- LBFGS
 |  |dR|max  |   2.946412E-003 |   1.000000E-003 |          A | No  | <-- LBFGS
 |   Smax    |   5.961508E-001 |   1.000000E-001 |        GPa | No  | <-- LBFGS
 +-----------+-----------------+-----------------+------------+-----+ <-- LBFGS
  

================================================================================
 Starting LBFGS iteration          3 ...
================================================================================
  
 +------------+-------------+-------------+-----------------+ <-- min LBFGS
 |    Step    |   lambda    |   F.delta'  |    enthalpy     | <-- min LBFGS
 +------------+-------------+-------------+-----------------+ <-- min LBFGS
 |  previous  |    0.000000 |    0.081984 |    -3080.463751 | <-- min LBFGS
 +------------+-------------+-------------+-----------------+ <-- min LBFGS
  

--------------------------------------------------------------------------------
 LBFGS: starting iteration         3 with trial guess (lambda=  1.000000)
--------------------------------------------------------------------------------

                           -------------------------------
                                      Unit Cell
                           -------------------------------
        Real Lattice(A)              Reciprocal Lattice(1/A)
     2.4079548     1.3902335     4.3636370        1.304672388   0.753252899   0.479965617
    -2.4079556     1.3902332     4.3636375       -1.304672378   0.753253058   0.479965338
    -0.0000006    -2.7804671     4.3636370        0.000000143  -1.506506028   0.479965416

                       Lattice parameters(A)       Cell Angles
                    a =      5.174198          alpha =   55.469299
                    b =      5.174199          beta  =   55.469310
                    c =      5.174198          gamma =   55.469306

                Current cell volume =            87.646793 A**3
                            density =             2.326640 amu/A**3
                                    =             3.863477 g/cm^3

                           -------------------------------
                                     Cell Contents
                           -------------------------------

            xxxxxxxxxxxxxxxxxxxxxxxxxxxxxxxxxxxxxxxxxxxxxxxxxxxxxxxxxxxxxxxxx
            x  Element         Atom        Fractional coordinates of atoms  x
            x                 Number           u          v          w      x
            x---------------------------------------------------------------x
            x  O                 1         0.553660   0.946340   0.250000   x
            x  O                 2         0.946340   0.250000   0.553660   x
            x  O                 3         0.250000   0.553660   0.946340   x
            x  O                 4         0.053660   0.750000   0.446340   x
            x  O                 5         0.750000   0.446341   0.053659   x
            x  O                 6         0.446341   0.053659   0.750000   x
            x  Al                1         0.147917   0.147917   0.147917   x
            x  Al                2         0.647917   0.647917   0.647917   x
            x  Al                3         0.852083   0.852083   0.852083   x
            x  Al                4         0.352083   0.352083   0.352083   x
            xxxxxxxxxxxxxxxxxxxxxxxxxxxxxxxxxxxxxxxxxxxxxxxxxxxxxxxxxxxxxxxxx


------------------------------------------------------------------------ <-- SCF
SCF loop      Energy           Fermi           Energy gain       Timer   <-- SCF
                               energy          per atom          (sec)   <-- SCF
------------------------------------------------------------------------ <-- SCF
Initial  -3.08028475E+003  0.00000000E+000                       133.16  <-- SCF
      1  -3.08048840E+003  5.30086684E+000   2.03659588E-002     134.78  <-- SCF
      2  -3.08048903E+003  5.30084564E+000   6.23201157E-005     137.07  <-- SCF
      3  -3.08043753E+003  5.31692008E+000  -5.14949653E-003     139.10  <-- SCF
      4  -3.08043734E+003  5.32428148E+000  -1.90236115E-005     141.37  <-- SCF
      5  -3.08043734E+003  5.32161097E+000  -6.65890160E-007     142.99  <-- SCF
      6  -3.08043733E+003  5.32339734E+000  -3.10820556E-007     144.42  <-- SCF
------------------------------------------------------------------------ <-- SCF
 
Final energy, E             =  -3080.437332928     eV
Final free energy (E-TS)    =  -3080.437332928     eV
(energies not corrected for finite basis set)
 
NB est. 0K energy (E-0.5TS)      =  -3080.437332928     eV
 

 ************************************** Forces **************************************
 *                                                                                  *
 *                           Cartesian components (eV/A)                            *
 * -------------------------------------------------------------------------------- *
 *                         x                    y                    z              *
 *                                                                                  *
 * O               1     -0.16252             -0.00000             -0.00000         *
 * O               2      0.08126              0.14073              0.00001         *
 * O               3      0.08125             -0.14073             -0.00001         *
 * O               4     -0.08123             -0.14068             -0.00000         *
 * O               5     -0.08120              0.14067              0.00001         *
 * O               6      0.16243              0.00001              0.00000         *
 * Al              1      0.00001              0.00000             -0.03066         *
 * Al              2      0.00001              0.00001             -0.03070         *
 * Al              3      0.00000              0.00000              0.03070         *
 * Al              4     -0.00000              0.00000              0.03066         *
 *                                                                                  *
 ************************************************************************************

 ***************** Stress Tensor *****************
 *                                               *
 *          Cartesian components (GPa)           *
 * --------------------------------------------- *
 *             x             y             z     *
 *                                               *
 *  x     -0.789843      0.000051     -0.000080  *
 *  y      0.000051     -0.789897      0.000012  *
 *  z     -0.000080      0.000012     -0.517295  *
 *                                               *
 *  Pressure:    0.6990                          *
 *                                               *
 *************************************************
  
 +------------+-------------+-------------+-----------------+ <-- min LBFGS
 |    Step    |   lambda    |   F.delta'  |    enthalpy     | <-- min LBFGS
 +------------+-------------+-------------+-----------------+ <-- min LBFGS
 |  previous  |    0.000000 |    0.081984 |    -3080.463751 | <-- min LBFGS
 | trial step |    1.000000 |    0.049297 |    -3080.471320 | <-- min LBFGS
 +------------+-------------+-------------+-----------------+ <-- min LBFGS
  

--------------------------------------------------------------------------------
 LBFGS: improving iteration         3 with line minimization (lambda=  2.508117)
--------------------------------------------------------------------------------

                           -------------------------------
                                      Unit Cell
                           -------------------------------
        Real Lattice(A)              Reciprocal Lattice(1/A)
     2.4080616     1.3902951     4.3618472        1.304614494   0.753219494   0.480162595
    -2.4080625     1.3902947     4.3618478       -1.304614490   0.753219696   0.480162263
    -0.0000008    -2.7805905     4.3618473        0.000000177  -1.506439233   0.480162323

                       Lattice parameters(A)       Cell Angles
                    a =      5.172755          alpha =   55.488778
                    b =      5.172756          beta  =   55.488791
                    c =      5.172755          gamma =   55.488789

                Current cell volume =            87.618617 A**3
                            density =             2.327388 amu/A**3
                                    =             3.864719 g/cm^3

                           -------------------------------
                                     Cell Contents
                           -------------------------------

            xxxxxxxxxxxxxxxxxxxxxxxxxxxxxxxxxxxxxxxxxxxxxxxxxxxxxxxxxxxxxxxxx
            x  Element         Atom        Fractional coordinates of atoms  x
            x                 Number           u          v          w      x
            x---------------------------------------------------------------x
            x  O                 1         0.552372   0.947628   0.250000   x
            x  O                 2         0.947628   0.250000   0.552372   x
            x  O                 3         0.250000   0.552372   0.947628   x
            x  O                 4         0.052371   0.750000   0.447629   x
            x  O                 5         0.750000   0.447629   0.052371   x
            x  O                 6         0.447629   0.052371   0.750000   x
            x  Al                1         0.147890   0.147890   0.147889   x
            x  Al                2         0.647890   0.647890   0.647890   x
            x  Al                3         0.852110   0.852110   0.852110   x
            x  Al                4         0.352111   0.352110   0.352110   x
            xxxxxxxxxxxxxxxxxxxxxxxxxxxxxxxxxxxxxxxxxxxxxxxxxxxxxxxxxxxxxxxxx


------------------------------------------------------------------------ <-- SCF
SCF loop      Energy           Fermi           Energy gain       Timer   <-- SCF
                               energy          per atom          (sec)   <-- SCF
------------------------------------------------------------------------ <-- SCF
Initial  -3.08008220E+003  0.00000000E+000                       151.54  <-- SCF
      1  -3.08055065E+003  5.27834225E+000   4.68445081E-002     153.16  <-- SCF
      2  -3.08055221E+003  5.27830336E+000   1.55735490E-004     155.47  <-- SCF
      3  -3.08043472E+003  5.30437977E+000  -1.17488686E-002     157.52  <-- SCF
      4  -3.08043429E+003  5.31104918E+000  -4.23283162E-005     159.81  <-- SCF
      5  -3.08043431E+003  5.31125776E+000   1.68045821E-006     161.49  <-- SCF
      6  -3.08043431E+003  5.31245624E+000   7.01121201E-008     163.00  <-- SCF
------------------------------------------------------------------------ <-- SCF
 
Final energy, E             =  -3080.434312426     eV
Final free energy (E-TS)    =  -3080.434312426     eV
(energies not corrected for finite basis set)
 
NB est. 0K energy (E-0.5TS)      =  -3080.434312426     eV
 

 ************************************** Forces **************************************
 *                                                                                  *
 *                           Cartesian components (eV/A)                            *
 * -------------------------------------------------------------------------------- *
 *                         x                    y                    z              *
 *                                                                                  *
 * O               1     -0.00217              0.00000              0.00000         *
 * O               2      0.00107              0.00185              0.00001         *
 * O               3      0.00107             -0.00185             -0.00001         *
 * O               4     -0.00102             -0.00178             -0.00001         *
 * O               5     -0.00100              0.00176              0.00001         *
 * O               6      0.00203              0.00000              0.00000         *
 * Al              1      0.00001              0.00001             -0.04501         *
 * Al              2      0.00001              0.00001             -0.04507         *
 * Al              3      0.00000             -0.00000              0.04507         *
 * Al              4     -0.00000              0.00000              0.04501         *
 *                                                                                  *
 ************************************************************************************

 ***************** Stress Tensor *****************
 *                                               *
 *          Cartesian components (GPa)           *
 * --------------------------------------------- *
 *             x             y             z     *
 *                                               *
 *  x     -1.017643      0.000078     -0.000077  *
 *  y      0.000078     -1.017800     -0.000018  *
 *  z     -0.000077     -0.000018     -0.530866  *
 *                                               *
 *  Pressure:    0.8554                          *
 *                                               *
 *************************************************
  
 +------------+-------------+-------------+-----------------+ <-- min LBFGS
 |    Step    |   lambda    |   F.delta'  |    enthalpy     | <-- min LBFGS
 +------------+-------------+-------------+-----------------+ <-- min LBFGS
 |  previous  |    0.000000 |    0.081984 |    -3080.463751 | <-- min LBFGS
 | trial step |    1.000000 |    0.049297 |    -3080.471320 | <-- min LBFGS
 |  line step |    2.508117 |    0.000592 |    -3080.476989 | <-- min LBFGS
 +------------+-------------+-------------+-----------------+ <-- min LBFGS
  
 LBFGS: finished iteration     3 with enthalpy= -3.08047699E+003 eV
  
 +-----------+-----------------+-----------------+------------+-----+ <-- LBFGS
 | Parameter |      value      |    tolerance    |    units   | OK? | <-- LBFGS
 +-----------+-----------------+-----------------+------------+-----+ <-- LBFGS
 |  dE/ion   |   1.323739E-003 |   1.000000E-005 |         eV | No  | <-- LBFGS
 |  |F|max   |   4.507017E-002 |   1.000000E-002 |       eV/A | No  | <-- LBFGS
 |  |dR|max  |   1.032061E-002 |   1.000000E-003 |          A | No  | <-- LBFGS
 |   Smax    |   1.017800E+000 |   1.000000E-001 |        GPa | No  | <-- LBFGS
 +-----------+-----------------+-----------------+------------+-----+ <-- LBFGS
  

================================================================================
 Starting LBFGS iteration          4 ...
================================================================================
  
 +------------+-------------+-------------+-----------------+ <-- min LBFGS
 |    Step    |   lambda    |   F.delta'  |    enthalpy     | <-- min LBFGS
 +------------+-------------+-------------+-----------------+ <-- min LBFGS
 |  previous  |    0.000000 |    0.030649 |    -3080.476989 | <-- min LBFGS
 +------------+-------------+-------------+-----------------+ <-- min LBFGS
  

--------------------------------------------------------------------------------
 LBFGS: starting iteration         4 with trial guess (lambda=  1.000000)
--------------------------------------------------------------------------------

                           -------------------------------
                                      Unit Cell
                           -------------------------------
        Real Lattice(A)              Reciprocal Lattice(1/A)
     2.4114232     1.3922360     4.3654883        1.302795891   0.752169491   0.479762047
    -2.4114239     1.3922358     4.3654887       -1.302795856   0.752169569   0.479761828
    -0.0000004    -2.7844722     4.3654883        0.000000084  -1.504339127   0.479761869

                       Lattice parameters(A)       Cell Angles
                    a =      5.177912          alpha =   55.512812
                    b =      5.177912          beta  =   55.512819
                    c =      5.177912          gamma =   55.512815

                Current cell volume =            87.936760 A**3
                            density =             2.318968 amu/A**3
                                    =             3.850737 g/cm^3

                           -------------------------------
                                     Cell Contents
                           -------------------------------

            xxxxxxxxxxxxxxxxxxxxxxxxxxxxxxxxxxxxxxxxxxxxxxxxxxxxxxxxxxxxxxxxx
            x  Element         Atom        Fractional coordinates of atoms  x
            x                 Number           u          v          w      x
            x---------------------------------------------------------------x
            x  O                 1         0.552259   0.947741   0.250000   x
            x  O                 2         0.947742   0.250000   0.552258   x
            x  O                 3         0.250000   0.552258   0.947742   x
            x  O                 4         0.052258   0.750000   0.447742   x
            x  O                 5         0.750000   0.447743   0.052257   x
            x  O                 6         0.447742   0.052258   0.750000   x
            x  Al                1         0.147875   0.147875   0.147875   x
            x  Al                2         0.647875   0.647875   0.647875   x
            x  Al                3         0.852125   0.852125   0.852125   x
            x  Al                4         0.352125   0.352125   0.352125   x
            xxxxxxxxxxxxxxxxxxxxxxxxxxxxxxxxxxxxxxxxxxxxxxxxxxxxxxxxxxxxxxxxx


------------------------------------------------------------------------ <-- SCF
SCF loop      Energy           Fermi           Energy gain       Timer   <-- SCF
                               energy          per atom          (sec)   <-- SCF
------------------------------------------------------------------------ <-- SCF
Initial  -3.08013466E+003  0.00000000E+000                       170.15  <-- SCF
      1  -3.08045789E+003  5.19827961E+000   3.23229393E-002     171.81  <-- SCF
      2  -3.08045878E+003  5.19829097E+000   8.90140759E-005     173.96  <-- SCF
      3  -3.08045374E+003  5.34518862E+000  -5.04266391E-004     176.03  <-- SCF
      4  -3.08044766E+003  5.28010439E+000  -6.07199666E-004     178.04  <-- SCF
      5  -3.08044769E+003  5.28087240E+000   2.07180317E-006     179.72  <-- SCF
      6  -3.08044769E+003  5.28167199E+000   1.35601741E-007     181.05  <-- SCF
------------------------------------------------------------------------ <-- SCF
 
Final energy, E             =  -3080.447687062     eV
Final free energy (E-TS)    =  -3080.447687062     eV
(energies not corrected for finite basis set)
 
NB est. 0K energy (E-0.5TS)      =  -3080.447687062     eV
 

 ************************************** Forces **************************************
 *                                                                                  *
 *                           Cartesian components (eV/A)                            *
 * -------------------------------------------------------------------------------- *
 *                         x                    y                    z              *
 *                                                                                  *
 * O               1     -0.00377             -0.00000              0.00000         *
 * O               2      0.00188              0.00327              0.00002         *
 * O               3      0.00188             -0.00326              0.00000         *
 * O               4     -0.00184             -0.00319             -0.00001         *
 * O               5     -0.00181              0.00317             -0.00001         *
 * O               6      0.00365              0.00000              0.00000         *
 * Al              1      0.00001             -0.00001             -0.04622         *
 * Al              2      0.00002              0.00001             -0.04627         *
 * Al              3      0.00001              0.00001              0.04627         *
 * Al              4     -0.00001              0.00001              0.04622         *
 *                                                                                  *
 ************************************************************************************

 ***************** Stress Tensor *****************
 *                                               *
 *          Cartesian components (GPa)           *
 * --------------------------------------------- *
 *             x             y             z     *
 *                                               *
 *  x     -0.462577      0.000038     -0.000072  *
 *  y      0.000038     -0.462573      0.000014  *
 *  z     -0.000072      0.000014     -0.168143  *
 *                                               *
 *  Pressure:    0.3644                          *
 *                                               *
 *************************************************
  
 +------------+-------------+-------------+-----------------+ <-- min LBFGS
 |    Step    |   lambda    |   F.delta'  |    enthalpy     | <-- min LBFGS
[...]
 |  |F|max   |   2.053275E-003 |   1.000000E-002 |       eV/A | Yes | <-- LBFGS
 |  |dR|max  |   3.504887E-005 |   1.000000E-003 |          A | Yes | <-- LBFGS
 |   Smax    |   1.425826E-002 |   1.000000E-001 |        GPa | Yes | <-- LBFGS
 +-----------+-----------------+-----------------+------------+-----+ <-- LBFGS
  

================================================================================
 Starting LBFGS iteration         15 ...
================================================================================

Writing analysis data to al2o3_xc-LDA_c-0500_k-5x5x5_geom.castep_bin

Writing model to al2o3_xc-LDA_c-0500_k-5x5x5_geom.check
  
 +------------+-------------+-------------+-----------------+ <-- min LBFGS
 |    Step    |   lambda    |   F.delta'  |    enthalpy     | <-- min LBFGS
 +------------+-------------+-------------+-----------------+ <-- min LBFGS
 |  previous  |    0.000000 |    0.000671 |    -3080.439631 | <-- min LBFGS
 +------------+-------------+-------------+-----------------+ <-- min LBFGS
  

--------------------------------------------------------------------------------
 LBFGS: starting iteration        15 with trial guess (lambda=  1.000000)
--------------------------------------------------------------------------------

                           -------------------------------
                                      Unit Cell
                           -------------------------------
        Real Lattice(A)              Reciprocal Lattice(1/A)
     2.4140882     1.3937743     4.3640094        1.301357859   0.751339304   0.479924545
    -2.4140882     1.3937743     4.3640094       -1.301357867   0.751339306   0.479924562
     0.0000000    -2.7875491     4.3640092       -0.000000002  -1.502678665   0.479924465

                       Lattice parameters(A)       Cell Angles
                    a =      5.178321          alpha =   55.574698
                    b =      5.178321          beta  =   55.574698
                    c =      5.178321          gamma =   55.574698

                Current cell volume =            88.101348 A**3
                            density =             2.314636 amu/A**3
                                    =             3.843544 g/cm^3

                           -------------------------------
                                     Cell Contents
                           -------------------------------

            xxxxxxxxxxxxxxxxxxxxxxxxxxxxxxxxxxxxxxxxxxxxxxxxxxxxxxxxxxxxxxxxx
            x  Element         Atom        Fractional coordinates of atoms  x
            x                 Number           u          v          w      x
            x---------------------------------------------------------------x
            x  O                 1         0.552088   0.947912   0.250000   x
            x  O                 2         0.947912   0.250000   0.552088   x
            x  O                 3         0.250000   0.552088   0.947912   x
            x  O                 4         0.052088   0.750000   0.447912   x
            x  O                 5         0.750000   0.447912   0.052088   x
            x  O                 6         0.447912   0.052088   0.750000   x
            x  Al                1         0.147599   0.147599   0.147599   x
            x  Al                2         0.647599   0.647599   0.647599   x
            x  Al                3         0.852401   0.852401   0.852401   x
            x  Al                4         0.352401   0.352401   0.352401   x
            xxxxxxxxxxxxxxxxxxxxxxxxxxxxxxxxxxxxxxxxxxxxxxxxxxxxxxxxxxxxxxxxx


------------------------------------------------------------------------ <-- SCF
SCF loop      Energy           Fermi           Energy gain       Timer   <-- SCF
                               energy          per atom          (sec)   <-- SCF
------------------------------------------------------------------------ <-- SCF
Initial  -3.08044040E+003  0.00000000E+000                       502.54  <-- SCF
      1  -3.08044043E+003  5.27520445E+000   3.14611448E-006     503.77  <-- SCF
      2  -3.08044043E+003  5.27520442E+000   1.13526946E-007     505.08  <-- SCF
      3  -3.08044042E+003  5.27520520E+000  -8.39457006E-007     506.39  <-- SCF
      4  -3.08044042E+003  5.27496763E+000   7.09202396E-011     507.70  <-- SCF
------------------------------------------------------------------------ <-- SCF
 
Final energy, E             =  -3080.440422886     eV
Final free energy (E-TS)    =  -3080.440422886     eV
(energies not corrected for finite basis set)
 
NB est. 0K energy (E-0.5TS)      =  -3080.440422886     eV
 

 ************************************** Forces **************************************
 *                                                                                  *
 *                           Cartesian components (eV/A)                            *
 * -------------------------------------------------------------------------------- *
 *                         x                    y                    z              *
 *                                                                                  *
 * O               1      0.00422              0.00000             -0.00000         *
 * O               2     -0.00211             -0.00365             -0.00000         *
 * O               3     -0.00211              0.00366              0.00000         *
 * O               4      0.00209              0.00362             -0.00000         *
 * O               5      0.00208             -0.00362             -0.00000         *
 * O               6     -0.00417             -0.00001              0.00000         *
 * Al              1     -0.00000              0.00000              0.00015         *
 * Al              2     -0.00000             -0.00000              0.00016         *
 * Al              3     -0.00000             -0.00000             -0.00016         *
 * Al              4     -0.00000              0.00000             -0.00015         *
 *                                                                                  *
 ************************************************************************************

 ***************** Stress Tensor *****************
 *                                               *
 *          Cartesian components (GPa)           *
 * --------------------------------------------- *
 *             x             y             z     *
 *                                               *
 *  x     -0.007714      0.000001      0.000003  *
 *  y      0.000001     -0.007720      0.000001  *
 *  z      0.000003      0.000001     -0.018940  *
 *                                               *
 *  Pressure:    0.0115                          *
 *                                               *
 *************************************************
  
 +------------+-------------+-------------+-----------------+ <-- min LBFGS
 |    Step    |   lambda    |   F.delta'  |    enthalpy     | <-- min LBFGS
 +------------+-------------+-------------+-----------------+ <-- min LBFGS
 |  previous  |    0.000000 |    0.000671 |    -3080.439631 | <-- min LBFGS
 | trial step |    1.000000 |    0.001308 |    -3080.439632 | <-- min LBFGS
 +------------+-------------+-------------+-----------------+ <-- min LBFGS
  
 LBFGS: finished iteration    15 with enthalpy= -3.08043963E+003 eV
  
 +-----------+-----------------+-----------------+------------+-----+ <-- LBFGS
 | Parameter |      value      |    tolerance    |    units   | OK? | <-- LBFGS
 +-----------+-----------------+-----------------+------------+-----+ <-- LBFGS
 |  dE/ion   |   8.487657E-008 |   1.000000E-005 |         eV | Yes | <-- LBFGS
 |  |F|max   |   4.224902E-003 |   1.000000E-002 |       eV/A | Yes | <-- LBFGS
 |  |dR|max  |   4.853848E-005 |   1.000000E-003 |          A | Yes | <-- LBFGS
 |   Smax    |   1.894003E-002 |   1.000000E-001 |        GPa | Yes | <-- LBFGS
 +-----------+-----------------+-----------------+------------+-----+ <-- LBFGS
  
 LBFGS: Geometry optimization completed successfully.

================================================================================
 LBFGS: Final Configuration:
================================================================================

                           -------------------------------
                                      Unit Cell
                           -------------------------------
        Real Lattice(A)              Reciprocal Lattice(1/A)
     2.4140882     1.3937743     4.3640094        1.301357859   0.751339304   0.479924545
    -2.4140882     1.3937743     4.3640094       -1.301357867   0.751339306   0.479924562
     0.0000000    -2.7875491     4.3640092       -0.000000002  -1.502678665   0.479924465

                       Lattice parameters(A)       Cell Angles
                    a =      5.178321          alpha =   55.574698
                    b =      5.178321          beta  =   55.574698
                    c =      5.178321          gamma =   55.574698

                Current cell volume =            88.101348 A**3
                            density =             2.314636 amu/A**3
                                    =             3.843544 g/cm^3

                           -------------------------------
                                     Cell Contents
                           -------------------------------

            xxxxxxxxxxxxxxxxxxxxxxxxxxxxxxxxxxxxxxxxxxxxxxxxxxxxxxxxxxxxxxxxx
            x  Element         Atom        Fractional coordinates of atoms  x
            x                 Number           u          v          w      x
            x---------------------------------------------------------------x
            x  O                 1         0.552088   0.947912   0.250000   x
            x  O                 2         0.947912   0.250000   0.552088   x
            x  O                 3         0.250000   0.552088   0.947912   x
            x  O                 4         0.052088   0.750000   0.447912   x
            x  O                 5         0.750000   0.447912   0.052088   x
            x  O                 6         0.447912   0.052088   0.750000   x
            x  Al                1         0.147599   0.147599   0.147599   x
            x  Al                2         0.647599   0.647599   0.647599   x
            x  Al                3         0.852401   0.852401   0.852401   x
            x  Al                4         0.352401   0.352401   0.352401   x
            xxxxxxxxxxxxxxxxxxxxxxxxxxxxxxxxxxxxxxxxxxxxxxxxxxxxxxxxxxxxxxxxx


 LBFGS: Final Enthalpy     = -3.08043963E+003 eV
 LBFGS: Final <frequency>  =    1050.15179 cm-1
 LBFGS: Final bulk modulus =     453.48370 GPa

 ************************************** Forces **************************************
 *                                                                                  *
 *                           Cartesian components (eV/A)                            *
 * -------------------------------------------------------------------------------- *
 *                         x                    y                    z              *
 *                                                                                  *
 * O               1      0.00422              0.00000             -0.00000         *
 * O               2     -0.00211             -0.00365             -0.00000         *
 * O               3     -0.00211              0.00366              0.00000         *
 * O               4      0.00209              0.00362             -0.00000         *
 * O               5      0.00208             -0.00362             -0.00000         *
 * O               6     -0.00417             -0.00001              0.00000         *
 * Al              1     -0.00000              0.00000              0.00015         *
 * Al              2     -0.00000             -0.00000              0.00016         *
 * Al              3     -0.00000             -0.00000             -0.00016         *
 * Al              4     -0.00000              0.00000             -0.00015         *
 *                                                                                  *
 ************************************************************************************

 ***************** Stress Tensor *****************
 *                                               *
 *          Cartesian components (GPa)           *
 * --------------------------------------------- *
 *             x             y             z     *
 *                                               *
 *  x     -0.007714      0.000001      0.000003  *
 *  y      0.000001     -0.007720      0.000001  *
 *  z      0.000003      0.000001     -0.018940  *
 *                                               *
 *  Pressure:    0.0115                          *
 *                                               *
 *************************************************

 Pseudo atomic calculation performed for O 2s2 2p4

 Converged in 24 iterations to a total energy of -429.4809 eV

 Pseudo atomic calculation performed for Al 3s2 3p1

 Converged in 15 iterations to a total energy of -105.5951 eV
Charge spilling parameter for spin component 1 = 0.76%

            Orbital Populations       
     Ion    Atom   Orbital             Charge
  -------------------------------------------
      O     1      S                    1.842
      O     1      Px                   1.716
      O     1      Py                   1.747
      O     1      Pz                   1.740
      O     2      S                    1.842
      O     2      Px                   1.739
      O     2      Py                   1.724
      O     2      Pz                   1.740
      O     3      S                    1.842
      O     3      Px                   1.739
      O     3      Py                   1.724
      O     3      Pz                   1.740
      O     4      S                    1.842
      O     4      Px                   1.739
      O     4      Py                   1.724
      O     4      Pz                   1.740
      O     5      S                    1.842
      O     5      Px                   1.739
      O     5      Py                   1.724
      O     5      Pz                   1.740
      O     6      S                    1.842
      O     6      Px                   1.716
      O     6      Py                   1.747
      O     6      Pz                   1.740
     Al     1      S                    0.531
     Al     1      Px                   0.303
     Al     1      Py                   0.303
     Al     1      Pz                   0.297
     Al     2      S                    0.531
     Al     2      Px                   0.303
     Al     2      Py                   0.303
     Al     2      Pz                   0.297
     Al     3      S                    0.531
     Al     3      Px                   0.303
     Al     3      Py                   0.303
     Al     3      Pz                   0.297
     Al     4      S                    0.531
     Al     4      Px                   0.303
     Al     4      Py                   0.303
     Al     4      Pz                   0.297
  -------------------------------------------
                           Total:      48.000
  -------------------------------------------

     Atomic Populations (Mulliken)
     -----------------------------
Species          Ion     s      p      d      f     Total  Charge (e)
=====================================================================
  O               1     1.84   5.20   0.00   0.00   7.04    -1.04
  O               2     1.84   5.20   0.00   0.00   7.04    -1.04
  O               3     1.84   5.20   0.00   0.00   7.04    -1.04
  O               4     1.84   5.20   0.00   0.00   7.04    -1.04
  O               5     1.84   5.20   0.00   0.00   7.04    -1.04
  O               6     1.84   5.20   0.00   0.00   7.04    -1.04
  Al              1     0.53   0.90   0.00   0.00   1.43     1.57
  Al              2     0.53   0.90   0.00   0.00   1.43     1.57
  Al              3     0.53   0.90   0.00   0.00   1.43     1.57
  Al              4     0.53   0.90   0.00   0.00   1.43     1.57
=====================================================================

                 Bond                   Population      Length (A)
======================================================================
               O 6 -- Al 4                   0.36        1.88775
               O 4 -- Al 1                   0.36        1.88775
               O 5 -- Al 1                   0.36        1.88775
               O 6 -- Al 1                   0.36        1.88775
               O 4 -- Al 4                   0.36        1.88775
               O 5 -- Al 4                   0.36        1.88775
               O 2 -- Al 3                   0.36        1.88775
               O 2 -- Al 2                   0.36        1.88775
               O 1 -- Al 2                   0.36        1.88775
               O 3 -- Al 3                   0.36        1.88775
               O 3 -- Al 2                   0.36        1.88775
               O 1 -- Al 3                   0.36        1.88775
               O 3 -- Al 1                   0.26        1.98107
               O 1 -- Al 1                   0.26        1.98107
               O 1 -- Al 4                   0.26        1.98107
               O 2 -- Al 4                   0.26        1.98107
               O 3 -- Al 4                   0.26        1.98107
               O 2 -- Al 1                   0.26        1.98107
               O 4 -- Al 2                   0.26        1.98107
               O 5 -- Al 3                   0.26        1.98107
               O 4 -- Al 3                   0.26        1.98107
               O 5 -- Al 2                   0.26        1.98107
               O 6 -- Al 2                   0.26        1.98107
               O 6 -- Al 3                   0.26        1.98107
               O 1 -- O 2                   -0.17        2.52625
               O 1 -- O 3                   -0.17        2.52625
               O 2 -- O 3                   -0.17        2.52625
               O 4 -- O 6                   -0.17        2.52625
               O 4 -- O 5                   -0.17        2.52625
               O 5 -- O 6                   -0.17        2.52626
               O 3 -- O 5                   -0.17        2.63756
               O 1 -- O 6                   -0.17        2.63756
               O 2 -- O 4                   -0.17        2.63756
              Al 1 -- Al 4                  -0.51        2.68128
              Al 2 -- Al 3                  -0.51        2.68128
               O 2 -- O 6                   -0.10        2.75986
               O 3 -- O 6                   -0.10        2.75986
               O 1 -- O 4                   -0.10        2.75986
               O 3 -- O 4                   -0.10        2.75986
               O 1 -- O 5                   -0.10        2.75986
               O 2 -- O 5                   -0.10        2.75986
              Al 1 -- Al 3                  -0.62        2.83191
              Al 2 -- Al 4                  -0.62        2.83191
======================================================================


Writing analysis data to al2o3_xc-LDA_c-0500_k-5x5x5_geom.castep_bin

Writing model to al2o3_xc-LDA_c-0500_k-5x5x5_geom.check
 
 A BibTeX formatted list of references used in this run has been written to 
 al2o3_xc-LDA_c-0500_k-5x5x5_geom.bib
 
Initialisation time =      6.96 s
Calculation time    =    509.06 s
Finalisation time   =      0.49 s
Total time          =    516.52 s
Peak Memory Use     = 577644 kB
  
Overall parallel efficiency rating: Excellent (97%)                             
  
Data was distributed by:-
k-point (9-way); efficiency rating: Excellent (97%)                             
  
Parallel notes:
1) Calculation only took 516.0 s, so efficiency estimates may be inaccurate.    
