 +-------------------------------------------------+
 |                                                 |
 |      CCC   AA    SSS  TTTTT  EEEEE  PPPP        |
 |     C     A  A  S       T    E      P   P       |
 |     C     AAAA   SS     T    EEE    PPPP        |
 |     C     A  A     S    T    E      P           |
 |      CCC  A  A  SSS     T    EEEEE  P           |
 |                                                 |
 +-------------------------------------------------+
 |                                                 |
 | Welcome to Academic Release CASTEP version 19.11|          
 | Ab Initio Total Energy Program                  |
 |                                                 |
 | Authors:                                        |
 | M. Segall, M. Probert, C. Pickard, P. Hasnip,   |
 | S. Clark, K. Refson, J. R. Yates, M. Payne      |
 |                                                 |
 | Contributors:                                   |
 | P. Lindan, P. Haynes, J. White, V. Milman,      |
 | N. Govind, M. Gibson, P. Tulip, V. Cocula,      |
 | B. Montanari, D. Quigley, M. Glover,            |
 | L. Bernasconi, A. Perlov, M. Plummer,           |
 | E. McNellis, J. Meyer, J. Gale, D. Jochym       |
 | J. Aarons, B. Walker, R. Gillen, D. Jones       |
 | T. Green, I. J. Bush, C. J. Armstrong,          |
 | E. J. Higgins, E. L. Brown, M. S. McFly,        |
 | J. Wilkins, B-C. Shih, P. J. P. Byrne           |
 |                                                 |
 | Copyright (c) 2000 - 2018                       |
 |                                                 |
 |     Distributed under the terms of an           |
 |     Agreement between the United Kingdom        |
 |     Car-Parrinello (UKCP) Consortium,           |
 |     Daresbury Laboratory and Accelrys, Inc.     |
 |                                                 |
 | Please cite                                     |
 |                                                 |
 |     "First principles methods using CASTEP"     |
 |                                                 |
 |         Zeitschrift fuer Kristallographie       |
 |           220(5-6) pp. 567-570 (2005)           |
 |                                                 |
 | S. J. Clark, M. D. Segall, C. J. Pickard,       |
 | P. J. Hasnip, M. J. Probert, K. Refson,         |
 | M. C. Payne                                     |
 |                                                 |
 |       in all publications arising from          |
 |              your use of CASTEP                 |
 |                                                 |
 +-------------------------------------------------+
 |                                                 |
 |              http://www.castep.org              |
 |                                                 |
 +-------------------------------------------------+



 Compiled for linux_x86_64_gfortran7.0 on Fri, 31 Jan 2020 20:20:28 +0100
 from code version e1fe0d666396+ Castep191_branch Thu, 24 Oct 2019 13:54:03 +0100
 Compiler: GNU Fortran 7.4.0; Optimisation: fast
 MATHLIBS: default (LAPACK version 3.7.1)
 FFT Lib : default
 Fundamental constants values: CODATA 2014

 Run started: Wed, 10 Nov 2021 13:28:14 +0100

 Atomic calculation performed for O: 1s2 2s2 2p4

 Converged in 57 iterations to an ae energy of -2034.019 eV

   ============================================================                
   | Pseudopotential Report - Date of generation 10-11-2021   |                
   ------------------------------------------------------------                
   | Element: O Ionic charge:  6.00 Level of theory: PBESOL   |                
   | Atomic Solver: Koelling-Harmon                           |                
   |                                                          |                
   |               Reference Electronic Structure             |                
   |         Orbital         Occupation         Energy        |                
   |            2s              2.000           -0.875        |                
   |            2p              4.000           -0.330        |                
   |                                                          |                
   |                 Pseudopotential Definition               |                
   |        Beta     l      e      Rc     scheme   norm       |                
   |          1      0   -0.875   1.100     qc      0         |                
   |          2      0    0.250   1.100     qc      0         |                
   |          3      1   -0.330   1.100     qc      0         |                
   |          4      1    0.250   1.100     qc      0         |                
   |         loc     2    0.000   1.100     pn      0         |                
   |                                                          |                
   | Augmentation charge Rinner = 0.769                       |                
   | Partial core correction Rc = 0.769                       |                
   ------------------------------------------------------------                
   | "2|1.1|17|20|23|20:21(qc=8)"                             |                
   ------------------------------------------------------------                
   |      Author: Chris J. Pickard, Cambridge University      |                
   ============================================================                

 Atomic calculation performed for Al: 1s2 2s2 2p6 3s2 3p1

 Converged in 55 iterations to an ae energy of -6590.489 eV

   ============================================================                
   | Pseudopotential Report - Date of generation 10-11-2021   |                
   ------------------------------------------------------------                
   | Element: Al Ionic charge:  3.00 Level of theory: PBESOL  |                
   | Atomic Solver: Koelling-Harmon                           |                
   |                                                          |                
   |               Reference Electronic Structure             |                
   |         Orbital         Occupation         Energy        |                
   |            3s              2.000           -0.284        |                
   |            3p              1.000           -0.099        |                
   |                                                          |                
   |                 Pseudopotential Definition               |                
   |        Beta     l      e      Rc     scheme   norm       |                
   |          1      0   -0.284   2.192     qc      0         |                
   |          2      0    0.250   2.192     qc      0         |                
   |          3      1   -0.099   2.192     qc      0         |                
   |          4      1    0.250   2.192     qc      0         |                
   |          5      2    0.000   2.000     qc      0         |                
   |          6      2    0.250   2.000     qc      0         |                
   |         loc     3    0.000   2.192     pn      0         |                
   |                                                          |                
   | Augmentation charge Rinner = 1.398                       |                
   | Partial core correction Rc = 1.398                       |                
   ------------------------------------------------------------                
   | "3|2.2|2.2|1.4|4|5|5|30:31:32U2U2"                       |                
   ------------------------------------------------------------                
   |      Author: Chris J. Pickard, Cambridge University      |                
   ============================================================                

 Pseudo atomic calculation performed for O 2s2 2p4

 Converged in 21 iterations to a total energy of -430.8269 eV

 Pseudo atomic calculation performed for Al 3s2 3p1

 Converged in 11 iterations to a total energy of -105.9168 eV
 Calculation parallelised over 7 processes.
 Data is distributed by k-point(7-way)

 ************************************ Title ************************************
 

 ***************************** General Parameters ******************************
  
 output verbosity                               : normal  (1)
 write checkpoint data to                       : al2o3_xc-PBESOL_c-0600_k-3x3x3_geom.check
 type of calculation                            : geometry optimization
 stress calculation                             : off
 density difference calculation                 : off
 electron localisation func (ELF) calculation   : off
 Hirshfeld analysis                             : off
 unlimited duration calculation
 timing information                             : on
 memory usage estimate                          : on
 write extra output files                       : on
 write final potential to formatted file        : off
 write final density to formatted file          : off
 write structure in CIF formatted file          : on
 write structure in CELL formatted file         : on
 write BibTeX reference list                    : on
 write OTFG pseudopotential files               : on
 write electrostatic potential file             : on
 write bands file                               : on
 checkpoint writing                             : both castep_bin and check files
  
 output         length unit                     : A
 output           mass unit                     : amu
 output           time unit                     : ps
 output         charge unit                     : e
 output           spin unit                     : hbar/2
 output         energy unit                     : eV
 output          force unit                     : eV/A
 output       velocity unit                     : A/ps
 output       pressure unit                     : GPa
 output     inv_length unit                     : 1/A
 output      frequency unit                     : cm-1
 output force constant unit                     : eV/A**2
 output         volume unit                     : A**3
 output   IR intensity unit                     : (D/A)**2/amu
 output         dipole unit                     : D
 output         efield unit                     : eV/A/e
 output        entropy unit                     : J/mol/K
  
 wavefunctions paging                           : none
 random number generator seed                   : randomised (132814147)
 data distribution                              : optimal for this architecture
 optimization strategy                          : maximize speed(+++)

 *********************** Exchange-Correlation Parameters ***********************
  
 using functional                               : PBE for solids (2008)
 relativistic treatment                         : Koelling-Harmon
 DFT+D: Semi-empirical dispersion correction    : off

 ************************* Pseudopotential Parameters **************************
  
 pseudopotential representation                 : reciprocal space
 <beta|phi> representation                      : reciprocal space
 spin-orbit coupling                            : off

 **************************** Basis Set Parameters *****************************
  
 plane wave basis set cut-off                   :   600.0000   eV
 size of standard grid                          :     1.7500
 size of   fine   gmax                          :    21.9610   1/A
 finite basis set correction                    : automatic
 number of sample energies                      :          3
           sample  spacing                      :     5.0000   eV

 **************************** Electronic Parameters ****************************
  
 number of  electrons                           :  48.00    
 net charge of system                           :  0.000    
 treating system as non-spin-polarized
 number of bands                                :         29

 ********************* Electronic Minimization Parameters **********************
  
 Method: Treating system as metallic with density mixing treatment of electrons,
         and number of  SD  steps               :          1
         and number of  CG  steps               :          4
  
 total energy / atom convergence tol.           : 0.1000E-04   eV
 eigen-energy convergence tolerance             : 0.1000E-05   eV
 max force / atom convergence tol.              : ignored
 convergence tolerance window                   :          3   cycles
 max. number of SCF cycles                      :         30
 number of fixed-spin iterations                :         10
 smearing scheme                                : Gaussian
 smearing width                                 : 0.2000       eV
 Fermi energy convergence tolerance             : 0.2721E-13   eV
 periodic dipole correction                     : NONE

 ************************** Density Mixing Parameters **************************
  
 density-mixing scheme                          : Broyden
 max. length of mixing history                  :         20
 charge density mixing amplitude                : 0.8000    
 cut-off energy for mixing                      :  600.0       eV

 *********************** Population Analysis Parameters ************************
  
 Population analysis with cutoff                :  3.000       A
 Population analysis output                     : summary and pdos components

 ********************** Geometry Optimization Parameters ***********************
  
 optimization method                            : LBFGS
 max. no. of LBFGS updates                      : unbounded
 variable cell method                           : fixed basis quality
 max. number of steps                           :        150
 estimated bulk modulus                         :  500.0       GPa
 estimated <frequency>                          :  1668.       cm-1
 geom line minimiser                            : on
 with line minimiser tolerance                  :     0.4000
 total energy convergence tolerance             : 0.1000E-04   eV/atom
        max ionic |force| tolerance             : 0.1000E-01   eV/A
 max ionic |displacement| tolerance             : 0.1000E-02   A
   max |stress component| tolerance             : 0.1000       GPa
 convergence tolerance window                   :          2   steps
 backup results every                           :          5   steps
 write geom trajectory file                     : on

 *******************************************************************************
  

                           -------------------------------
                                      Unit Cell
                           -------------------------------
        Real Lattice(A)                      Reciprocal Lattice(1/A)
     2.3801000     1.3741510     4.3310000        1.319941454   0.762068577   0.483582396
    -2.3801000     1.3741510     4.3310000       -1.319941454   0.762068577   0.483582396
     0.0000000    -2.7483030     4.3310000       -0.000000000  -1.524137154   0.483582220

                       Lattice parameters(A)       Cell Angles
                    a =      5.129398          alpha =   55.292535
                    b =      5.129398          beta  =   55.292535
                    c =      5.129399          gamma =   55.292537

                       Current cell volume =            84.990269       A**3
                                   density =             2.399364   AMU/A**3
                                           =             3.984237     g/cm^3

                           -------------------------------
                                     Cell Contents
                           -------------------------------
                         Total number of ions in cell =   10
                      Total number of species in cell =    2
                        Max number of any one species =    6

            xxxxxxxxxxxxxxxxxxxxxxxxxxxxxxxxxxxxxxxxxxxxxxxxxxxxxxxxxxxx
            x  Element    Atom        Fractional coordinates of atoms  x
            x            Number           u          v          w      x
            x----------------------------------------------------------x
            x  O            1         0.556260   0.943740   0.250000   x 
            x  O            2         0.943740   0.250000   0.556260   x 
            x  O            3         0.250000   0.556260   0.943740   x 
            x  O            4         0.056260   0.750000   0.443740   x 
            x  O            5         0.750000   0.443740   0.056260   x 
            x  O            6         0.443740   0.056260   0.750000   x 
            x  Al           1         0.147900   0.147900   0.147900   x 
            x  Al           2         0.647900   0.647900   0.647900   x 
            x  Al           3         0.852100   0.852100   0.852100   x 
            x  Al           4         0.352100   0.352100   0.352100   x 
            xxxxxxxxxxxxxxxxxxxxxxxxxxxxxxxxxxxxxxxxxxxxxxxxxxxxxxxxxxxx


                         No user defined ionic velocities

                           -------------------------------
                                   Details of Species
                           -------------------------------

                               Mass of species in AMU
                                    O   15.9994000
                                    Al   26.9815400

                          Electric Quadrupole Moment (Barn)
                                    O   -0.0255800 Isotope 17
                                    Al    0.1466000 Isotope 27

                          Files used for pseudopotentials:
                                    O 2|1.1|17|20|23|20:21(qc=8)
                                    Al 3|2.2|2.2|1.4|4|5|5|30:31:32U2U2

                           -------------------------------
                              k-Points For BZ Sampling
                           -------------------------------
                       MP grid size for SCF calculation is  3  3  3
                            with an offset of   0.000  0.000  0.000
                       Number of kpoints used =            14

                           -------------------------------
                               Symmetry and Constraints
                           -------------------------------

                      Maximum deviation from symmetry =  0.00000         ANG

                      Number of symmetry operations   =           1
                      Number of ionic constraints     =           3
                      Point group of crystal =     1: C1, 1, 1
                      Space group of crystal =   167: R-3c, -R 3 2"c

             Set iprint > 1 for details on symmetry rotations/translations

                         Centre of mass is constrained
             Set iprint > 1 for details of linear ionic constraints

                         Number of cell constraints= 0
                         Cell constraints are:  1 2 3 4 5 6

                         External pressure/stress (GPa)
                          0.00000   0.00000   0.00000
                                    0.00000   0.00000
                                              0.00000
  
+---------------- MEMORY AND SCRATCH DISK ESTIMATES PER PROCESS --------------+
|                                                     Memory          Disk    |
| Baseline code, static data and system overhead      196.0 MB         0.0 MB |
| BLAS internal memory storage                          0.0 MB         0.0 MB |
| Model and support data                              118.8 MB         0.0 MB |
| Electronic energy minimisation requirements          21.4 MB         0.0 MB |
| Force calculation requirements                        6.8 MB         0.0 MB |
|                                               ----------------------------- |
| Approx. total storage required per process          336.2 MB         0.0 MB |
|                                                                             |
| Requirements will fluctuate during execution and may exceed these estimates |
+-----------------------------------------------------------------------------+
Calculating finite basis set correction with  3 cut-off energies.
Calculating total energy with cut-off of  590.000 eV.
------------------------------------------------------------------------ <-- SCF
SCF loop      Energy           Fermi           Energy gain       Timer   <-- SCF
                               energy          per atom          (sec)   <-- SCF
------------------------------------------------------------------------ <-- SCF
Initial  -2.26236092E+003  0.00000000E+000                         8.46  <-- SCF
      1  -2.87654365E+003  1.25909088E+001   6.14182736E+001       9.12  <-- SCF
      2  -3.08827587E+003  8.70440083E+000   2.11732211E+001       9.73  <-- SCF
      3  -3.09376589E+003  8.67511046E+000   5.49002575E-001      10.30  <-- SCF
      4  -3.08950889E+003  1.02031242E+001  -4.25699863E-001      11.09  <-- SCF
      5  -3.08648998E+003  9.60757404E+000  -3.01890811E-001      11.86  <-- SCF
      6  -3.08654055E+003  9.64853717E+000   5.05626632E-003      12.75  <-- SCF
      7  -3.08653601E+003  9.68452849E+000  -4.53756484E-004      13.53  <-- SCF
      8  -3.08653606E+003  9.70763977E+000   5.39211315E-006      14.34  <-- SCF
      9  -3.08653590E+003  9.70340123E+000  -1.68149377E-005      15.07  <-- SCF
     10  -3.08653590E+003  9.70325495E+000  -6.04286845E-008      15.67  <-- SCF
     11  -3.08653590E+003  9.70343243E+000   1.32021313E-007      16.26  <-- SCF
------------------------------------------------------------------------ <-- SCF
 
Final energy, E             =  -3086.535896466     eV
Final free energy (E-TS)    =  -3086.535896466     eV
(energies not corrected for finite basis set)
 
NB est. 0K energy (E-0.5TS)      =  -3086.535896466     eV
 
Calculating total energy with cut-off of  595.000 eV.
------------------------------------------------------------------------ <-- SCF
SCF loop      Energy           Fermi           Energy gain       Timer   <-- SCF
                               energy          per atom          (sec)   <-- SCF
------------------------------------------------------------------------ <-- SCF
Initial  -3.08653591E+003  0.00000000E+000                        16.75  <-- SCF
      1  -3.08679215E+003  9.70367360E+000   2.56248817E-002      17.26  <-- SCF
      2  -3.08679226E+003  9.70367357E+000   1.04860815E-005      17.96  <-- SCF
      3  -3.08679233E+003  9.70835312E+000   7.49658514E-006      18.68  <-- SCF
      4  -3.08679230E+003  9.70596360E+000  -3.53798863E-006      19.26  <-- SCF
------------------------------------------------------------------------ <-- SCF
 
Final energy, E             =  -3086.792299255     eV
Final free energy (E-TS)    =  -3086.792299255     eV
(energies not corrected for finite basis set)
 
NB est. 0K energy (E-0.5TS)      =  -3086.792299255     eV
 
Calculating total energy with cut-off of  600.000 eV.
------------------------------------------------------------------------ <-- SCF
SCF loop      Energy           Fermi           Energy gain       Timer   <-- SCF
                               energy          per atom          (sec)   <-- SCF
------------------------------------------------------------------------ <-- SCF
Initial  -3.08679231E+003  0.00000000E+000                        19.75  <-- SCF
      1  -3.08702455E+003  9.70574658E+000   2.32231480E-002      20.25  <-- SCF
      2  -3.08702465E+003  9.70574656E+000   1.04030625E-005      20.96  <-- SCF
      3  -3.08702471E+003  9.71043087E+000   6.51916077E-006      21.68  <-- SCF
      4  -3.08702468E+003  9.70810278E+000  -3.55034105E-006      22.22  <-- SCF
------------------------------------------------------------------------ <-- SCF
 
Final energy, E             =  -3087.024678807     eV
Final free energy (E-TS)    =  -3087.024678807     eV
(energies not corrected for finite basis set)
 
NB est. 0K energy (E-0.5TS)      =  -3087.024678807     eV
 
 For future reference: finite basis dEtot/dlog(Ecut) =     -27.852513eV
 Total energy corrected for finite basis set =   -3087.003076 eV
 
+---------------- MEMORY AND SCRATCH DISK ESTIMATES PER PROCESS --------------+
|                                                     Memory          Disk    |
| Model and support data                              128.5 MB         0.0 MB |
| Electronic energy minimisation requirements          21.4 MB         0.0 MB |
| Geometry minimisation requirements                   24.8 MB         0.0 MB |
|                                               ----------------------------- |
| Approx. total storage required per process          174.8 MB         0.0 MB |
|                                                                             |
| Requirements will fluctuate during execution and may exceed these estimates |
+-----------------------------------------------------------------------------+
 

 ************************************** Forces **************************************
 *                                                                                  *
 *                           Cartesian components (eV/A)                            *
 * -------------------------------------------------------------------------------- *
 *                         x                    y                    z              *
 *                                                                                  *
 * O               1      0.02022             -0.00001              0.00001         *
 * O               2     -0.01014             -0.01760             -0.00000         *
 * O               3     -0.01009              0.01758             -0.00002         *
 * O               4      0.01011              0.01759              0.00000         *
 * O               5      0.01014             -0.01757              0.00005         *
 * O               6     -0.02027             -0.00000             -0.00002         *
 * Al              1      0.00001              0.00001              0.01236         *
 * Al              2      0.00001              0.00000              0.01236         *
 * Al              3      0.00001              0.00000             -0.01237         *
 * Al              4      0.00001              0.00000             -0.01237         *
 *                                                                                  *
 ************************************************************************************

 ***************** Stress Tensor *****************
 *                                               *
 *          Cartesian components (GPa)           *
 * --------------------------------------------- *
 *             x             y             z     *
 *                                               *
 *  x     -5.677913      0.000090     -0.000051  *
 *  y      0.000090     -5.677886     -0.000022  *
 *  z     -0.000051     -0.000022     -5.388303  *
 *                                               *
 *  Pressure:    5.5814                          *
 *                                               *
 *************************************************
 LBFGS: finished iteration     0 with enthalpy= -3.08700308E+003 eV
  
 +-----------+-----------------+-----------------+------------+-----+ <-- LBFGS
 | Parameter |      value      |    tolerance    |    units   | OK? | <-- LBFGS
 +-----------+-----------------+-----------------+------------+-----+ <-- LBFGS
 |  dE/ion   |   0.000000E+000 |   1.000000E-005 |         eV | No  | <-- LBFGS
 |  |F|max   |   2.031668E-002 |   1.000000E-002 |       eV/A | No  | <-- LBFGS
 |  |dR|max  |   0.000000E+000 |   1.000000E-003 |          A | No  | <-- LBFGS
 |   Smax    |   5.677913E+000 |   1.000000E-001 |        GPa | No  | <-- LBFGS
 +-----------+-----------------+-----------------+------------+-----+ <-- LBFGS
  

================================================================================
 Starting LBFGS iteration          1 ...
================================================================================
  
 +------------+-------------+-------------+-----------------+ <-- min LBFGS
 |    Step    |   lambda    |   F.delta'  |    enthalpy     | <-- min LBFGS
 +------------+-------------+-------------+-----------------+ <-- min LBFGS
 |  previous  |    0.000000 |    0.188584 |    -3087.003076 | <-- min LBFGS
 +------------+-------------+-------------+-----------------+ <-- min LBFGS
  

--------------------------------------------------------------------------------
 LBFGS: starting iteration         1 with trial guess (lambda=  1.000000)
--------------------------------------------------------------------------------
 
+---------------- MEMORY AND SCRATCH DISK ESTIMATES PER PROCESS --------------+
|                                                     Memory          Disk    |
| Model and support data                              128.6 MB         0.0 MB |
| Electronic energy minimisation requirements          21.6 MB         0.0 MB |
| Geometry minimisation requirements                   25.0 MB         0.0 MB |
|                                               ----------------------------- |
| Approx. total storage required per process          175.2 MB         0.0 MB |
|                                                                             |
| Requirements will fluctuate during execution and may exceed these estimates |
+-----------------------------------------------------------------------------+
 

                           -------------------------------
                                      Unit Cell
                           -------------------------------
        Real Lattice(A)              Reciprocal Lattice(1/A)
     2.3891094     1.3793524     4.3465579        1.314963982   0.759194901   0.481851433
    -2.3891093     1.3793527     4.3465578       -1.314963924   0.759194744   0.481851522
     0.0000003    -2.7587060     4.3465578       -0.000000107  -1.518389666   0.481851335

                       Lattice parameters(A)       Cell Angles
                    a =      5.148109          alpha =   55.300770
                    b =      5.148109          beta  =   55.300763
                    c =      5.148109          gamma =   55.300769

                Current cell volume =            85.942526 A**3
                            density =             2.372778 amu/A**3
                                    =             3.940091 g/cm^3

                           -------------------------------
                                     Cell Contents
                           -------------------------------

            xxxxxxxxxxxxxxxxxxxxxxxxxxxxxxxxxxxxxxxxxxxxxxxxxxxxxxxxxxxxxxxxx
            x  Element         Atom        Fractional coordinates of atoms  x
            x                 Number           u          v          w      x
            x---------------------------------------------------------------x
            x  O                 1         0.556280   0.943720   0.250000   x
            x  O                 2         0.943720   0.250000   0.556280   x
            x  O                 3         0.250000   0.556280   0.943719   x
            x  O                 4         0.056280   0.750000   0.443720   x
            x  O                 5         0.750000   0.443720   0.056280   x
            x  O                 6         0.443720   0.056281   0.750000   x
            x  Al                1         0.147905   0.147905   0.147905   x
            x  Al                2         0.647905   0.647905   0.647904   x
            x  Al                3         0.852096   0.852096   0.852095   x
            x  Al                4         0.352095   0.352095   0.352095   x
            xxxxxxxxxxxxxxxxxxxxxxxxxxxxxxxxxxxxxxxxxxxxxxxxxxxxxxxxxxxxxxxxx


------------------------------------------------------------------------ <-- SCF
SCF loop      Energy           Fermi           Energy gain       Timer   <-- SCF
                               energy          per atom          (sec)   <-- SCF
------------------------------------------------------------------------ <-- SCF
Initial  -3.08672460E+003  0.00000000E+000                        27.91  <-- SCF
      1  -3.08708082E+003  9.36317204E+000   3.56218879E-002      28.60  <-- SCF
      2  -3.08708169E+003  9.36301965E+000   8.71701818E-005      29.47  <-- SCF
      3  -3.08704239E+003  9.53675004E+000  -3.93037850E-003      30.32  <-- SCF
      4  -3.08698820E+003  9.45956180E+000  -5.41896232E-003      31.10  <-- SCF
      5  -3.08698894E+003  9.45826869E+000   7.48615798E-005      31.91  <-- SCF
      6  -3.08698894E+003  9.45891204E+000  -2.11154263E-007      32.49  <-- SCF
      7  -3.08698893E+003  9.46073801E+000  -9.93398937E-007      33.02  <-- SCF
------------------------------------------------------------------------ <-- SCF
 
Final energy, E             =  -3086.988932494     eV
Final free energy (E-TS)    =  -3086.988932494     eV
(energies not corrected for finite basis set)
 
NB est. 0K energy (E-0.5TS)      =  -3086.988932494     eV
 

 ************************************** Forces **************************************
 *                                                                                  *
 *                           Cartesian components (eV/A)                            *
 * -------------------------------------------------------------------------------- *
 *                         x                    y                    z              *
 *                                                                                  *
 * O               1      0.02582             -0.00006             -0.00006         *
 * O               2     -0.01292             -0.02241              0.00004         *
 * O               3     -0.01284              0.02226             -0.00004         *
 * O               4      0.01291              0.02241              0.00003         *
 * O               5      0.01281             -0.02229             -0.00000         *
 * O               6     -0.02579              0.00008              0.00002         *
 * Al              1     -0.00003             -0.00001              0.00480         *
 * Al              2      0.00001             -0.00002              0.00480         *
 * Al              3      0.00002             -0.00001             -0.00479         *
 * Al              4      0.00001              0.00005             -0.00480         *
 *                                                                                  *
 ************************************************************************************

 ***************** Stress Tensor *****************
 *                                               *
 *          Cartesian components (GPa)           *
 * --------------------------------------------- *
 *             x             y             z     *
 *                                               *
 *  x     -2.395157     -0.000146      0.000076  *
 *  y     -0.000146     -2.395213      0.000100  *
 *  z      0.000076      0.000100     -2.070541  *
 *                                               *
 *  Pressure:    2.2870                          *
 *                                               *
 *************************************************
  
 +------------+-------------+-------------+-----------------+ <-- min LBFGS
 |    Step    |   lambda    |   F.delta'  |    enthalpy     | <-- min LBFGS
 +------------+-------------+-------------+-----------------+ <-- min LBFGS
 |  previous  |    0.000000 |    0.188584 |    -3087.003076 | <-- min LBFGS
 | trial step |    1.000000 |    0.077987 |    -3087.010364 | <-- min LBFGS
 +------------+-------------+-------------+-----------------+ <-- min LBFGS
  

--------------------------------------------------------------------------------
 LBFGS: improving iteration         1 with line minimization (lambda=  1.705139)
--------------------------------------------------------------------------------
 
+---------------- MEMORY AND SCRATCH DISK ESTIMATES PER PROCESS --------------+
|                                                     Memory          Disk    |
| Model and support data                              159.2 MB         0.0 MB |
| Electronic energy minimisation requirements          23.2 MB         0.0 MB |
| Geometry minimisation requirements                   26.9 MB         0.0 MB |
|                                               ----------------------------- |
| Approx. total storage required per process          209.4 MB         0.0 MB |
|                                                                             |
| Requirements will fluctuate during execution and may exceed these estimates |
+-----------------------------------------------------------------------------+
 

                           -------------------------------
                                      Unit Cell
                           -------------------------------
        Real Lattice(A)              Reciprocal Lattice(1/A)
     2.3954623     1.3830202     4.3575284        1.311476682   0.757181554   0.480638294
    -2.3954621     1.3830207     4.3575282       -1.311476583   0.757181288   0.480638445
     0.0000005    -2.7660415     4.3575282       -0.000000181  -1.514362878   0.480638250

                       Lattice parameters(A)       Cell Angles
                    a =      5.161302          alpha =   55.306541
                    b =      5.161302          beta  =   55.306529
                    c =      5.161302          gamma =   55.306538

                Current cell volume =            86.618257 A**3
                            density =             2.354268 amu/A**3
                                    =             3.909353 g/cm^3

                           -------------------------------
                                     Cell Contents
                           -------------------------------

            xxxxxxxxxxxxxxxxxxxxxxxxxxxxxxxxxxxxxxxxxxxxxxxxxxxxxxxxxxxxxxxxx
            x  Element         Atom        Fractional coordinates of atoms  x
            x                 Number           u          v          w      x
            x---------------------------------------------------------------x
            x  O                 1         0.556295   0.943705   0.250000   x
            x  O                 2         0.943705   0.250000   0.556295   x
            x  O                 3         0.250000   0.556295   0.943705   x
            x  O                 4         0.056295   0.750000   0.443705   x
            x  O                 5         0.750000   0.443705   0.056295   x
            x  O                 6         0.443705   0.056295   0.750000   x
            x  Al                1         0.147908   0.147908   0.147908   x
            x  Al                2         0.647908   0.647908   0.647908   x
            x  Al                3         0.852092   0.852092   0.852092   x
            x  Al                4         0.352092   0.352092   0.352092   x
            xxxxxxxxxxxxxxxxxxxxxxxxxxxxxxxxxxxxxxxxxxxxxxxxxxxxxxxxxxxxxxxxx


------------------------------------------------------------------------ <-- SCF
SCF loop      Energy           Fermi           Energy gain       Timer   <-- SCF
                               energy          per atom          (sec)   <-- SCF
------------------------------------------------------------------------ <-- SCF
Initial  -3.08678873E+003  0.00000000E+000                        40.16  <-- SCF
      1  -3.08702296E+003  9.21903075E+000   2.34231832E-002      40.97  <-- SCF
      2  -3.08702378E+003  9.21896014E+000   8.14271891E-005      42.05  <-- SCF
      3  -3.08700416E+003  9.34120581E+000  -1.96222054E-003      43.14  <-- SCF
      4  -3.08697694E+003  9.28691351E+000  -2.72109772E-003      44.16  <-- SCF
      5  -3.08697734E+003  9.28589455E+000   3.95338552E-005      45.19  <-- SCF
      6  -3.08697734E+003  9.28641248E+000  -1.86905226E-007      45.91  <-- SCF
      7  -3.08697733E+003  9.28795552E+000  -5.06505043E-007      46.61  <-- SCF
------------------------------------------------------------------------ <-- SCF
 
Final energy, E             =  -3086.977333332     eV
Final free energy (E-TS)    =  -3086.977333332     eV
(energies not corrected for finite basis set)
 
NB est. 0K energy (E-0.5TS)      =  -3086.977333332     eV
 

 ************************************** Forces **************************************
 *                                                                                  *
 *                           Cartesian components (eV/A)                            *
 * -------------------------------------------------------------------------------- *
 *                         x                    y                    z              *
 *                                                                                  *
 * O               1      0.02526             -0.00003             -0.00004         *
 * O               2     -0.01257             -0.02191             -0.00002         *
 * O               3     -0.01262              0.02182             -0.00003         *
 * O               4      0.01256              0.02191              0.00002         *
 * O               5      0.01261             -0.02182              0.00002         *
 * O               6     -0.02526              0.00002              0.00003         *
 * Al              1     -0.00001              0.00001             -0.00053         *
 * Al              2      0.00001             -0.00001             -0.00052         *
 * Al              3      0.00001             -0.00003              0.00053         *
 * Al              4      0.00001              0.00002              0.00053         *
 *                                                                                  *
 ************************************************************************************

 ***************** Stress Tensor *****************
 *                                               *
 *          Cartesian components (GPa)           *
 * --------------------------------------------- *
 *             x             y             z     *
 *                                               *
 *  x     -0.377539     -0.000137      0.000107  *
 *  y     -0.000137     -0.377511     -0.000013  *
 *  z      0.000107     -0.000013     -0.371258  *
 *                                               *
 *  Pressure:    0.3754                          *
 *                                               *
 *************************************************
  
 +------------+-------------+-------------+-----------------+ <-- min LBFGS
 |    Step    |   lambda    |   F.delta'  |    enthalpy     | <-- min LBFGS
 +------------+-------------+-------------+-----------------+ <-- min LBFGS
 |  previous  |    0.000000 |    0.188584 |    -3087.003076 | <-- min LBFGS
 | trial step |    1.000000 |    0.077987 |    -3087.010364 | <-- min LBFGS
 |  line step |    1.705139 |    0.012919 |    -3087.002199 | <-- min LBFGS
 +------------+-------------+-------------+-----------------+ <-- min LBFGS
  
 LBFGS: finished iteration     1 with enthalpy= -3.08700220E+003 eV
  
 +-----------+-----------------+-----------------+------------+-----+ <-- LBFGS
 | Parameter |      value      |    tolerance    |    units   | OK? | <-- LBFGS
 +-----------+-----------------+-----------------+------------+-----+ <-- LBFGS
 |  dE/ion   |   8.766650E-005 |   1.000000E-005 |         eV | No  | <-- LBFGS
 |  |F|max   |   2.526102E-002 |   1.000000E-002 |       eV/A | No  | <-- LBFGS
 |  |dR|max  |   1.671486E-004 |   1.000000E-003 |          A | Yes | <-- LBFGS
 |   Smax    |   3.775389E-001 |   1.000000E-001 |        GPa | No  | <-- LBFGS
 +-----------+-----------------+-----------------+------------+-----+ <-- LBFGS
  

================================================================================
 Starting LBFGS iteration          2 ...
================================================================================
  
 +------------+-------------+-------------+-----------------+ <-- min LBFGS
 |    Step    |   lambda    |   F.delta'  |    enthalpy     | <-- min LBFGS
 +------------+-------------+-------------+-----------------+ <-- min LBFGS
 |  previous  |    0.000000 |    0.013676 |    -3087.002199 | <-- min LBFGS
 +------------+-------------+-------------+-----------------+ <-- min LBFGS
  

--------------------------------------------------------------------------------
 LBFGS: starting iteration         2 with trial guess (lambda=  1.000000)
--------------------------------------------------------------------------------
 
+---------------- MEMORY AND SCRATCH DISK ESTIMATES PER PROCESS --------------+
|                                                     Memory          Disk    |
| Model and support data                              159.2 MB         0.0 MB |
| Electronic energy minimisation requirements          23.3 MB         0.0 MB |
| Geometry minimisation requirements                   27.0 MB         0.0 MB |
|                                               ----------------------------- |
| Approx. total storage required per process          209.4 MB         0.0 MB |
|                                                                             |
| Requirements will fluctuate during execution and may exceed these estimates |
+-----------------------------------------------------------------------------+
 

                           -------------------------------
                                      Unit Cell
                           -------------------------------
        Real Lattice(A)              Reciprocal Lattice(1/A)
     2.3965858     1.3836692     4.3595098        1.310861733   0.756826420   0.480419918
    -2.3965859     1.3836692     4.3595099       -1.310861707   0.756826405   0.480419871
    -0.0000001    -2.7673389     4.3595097       -0.000000000  -1.513652875   0.480419798

                       Lattice parameters(A)       Cell Angles
                    a =      5.163670          alpha =   55.307148
                    b =      5.163670          beta  =   55.307148
                    c =      5.163670          gamma =   55.307151

                Current cell volume =            86.738964 A**3
                            density =             2.350991 amu/A**3
                                    =             3.903913 g/cm^3

                           -------------------------------
                                     Cell Contents
                           -------------------------------

            xxxxxxxxxxxxxxxxxxxxxxxxxxxxxxxxxxxxxxxxxxxxxxxxxxxxxxxxxxxxxxxxx
            x  Element         Atom        Fractional coordinates of atoms  x
            x                 Number           u          v          w      x
            x---------------------------------------------------------------x
            x  O                 1         0.556323   0.943677   0.250000   x
            x  O                 2         0.943677   0.250000   0.556323   x
            x  O                 3         0.250000   0.556323   0.943677   x
            x  O                 4         0.056323   0.750000   0.443677   x
            x  O                 5         0.750000   0.443677   0.056323   x
            x  O                 6         0.443677   0.056323   0.750000   x
            x  Al                1         0.147908   0.147908   0.147908   x
            x  Al                2         0.647908   0.647908   0.647908   x
            x  Al                3         0.852092   0.852092   0.852092   x
            x  Al                4         0.352092   0.352092   0.352092   x
            xxxxxxxxxxxxxxxxxxxxxxxxxxxxxxxxxxxxxxxxxxxxxxxxxxxxxxxxxxxxxxxxx


------------------------------------------------------------------------ <-- SCF
SCF loop      Energy           Fermi           Energy gain       Timer   <-- SCF
                               energy          per atom          (sec)   <-- SCF
------------------------------------------------------------------------ <-- SCF
Initial  -3.08694962E+003  0.00000000E+000                        55.09  <-- SCF
      1  -3.08696655E+003  9.24401629E+000   1.69332308E-003      55.92  <-- SCF
      2  -3.08696661E+003  9.24401571E+000   5.69494605E-006      56.85  <-- SCF
      3  -3.08696589E+003  9.26628527E+000  -7.19101280E-005      57.93  <-- SCF
      4  -3.08696502E+003  9.25658435E+000  -8.62351297E-005      58.93  <-- SCF
      5  -3.08696504E+003  9.25642865E+000   1.06364242E-006      59.63  <-- SCF
      6  -3.08696504E+003  9.25645868E+000   1.79286907E-007      60.32  <-- SCF
------------------------------------------------------------------------ <-- SCF
 
Final energy, E             =  -3086.965037173     eV
Final free energy (E-TS)    =  -3086.965037173     eV
(energies not corrected for finite basis set)
 
NB est. 0K energy (E-0.5TS)      =  -3086.965037173     eV
 

 ************************************** Forces **************************************
 *                                                                                  *
 *                           Cartesian components (eV/A)                            *
 * -------------------------------------------------------------------------------- *
 *                         x                    y                    z              *
 *                                                                                  *
 * O               1      0.02062              0.00001              0.00000         *
 * O               2     -0.01032             -0.01787              0.00000         *
 * O               3     -0.01032              0.01789              0.00001         *
 * O               4      0.01033              0.01786             -0.00002         *
 * O               5      0.01031             -0.01789             -0.00000         *
 * O               6     -0.02061             -0.00001              0.00001         *
 * Al              1      0.00000              0.00001             -0.00092         *
 * Al              2     -0.00001             -0.00000             -0.00092         *
 * Al              3     -0.00001             -0.00001              0.00092         *
 * Al              4      0.00000              0.00001              0.00092         *
 *                                                                                  *
 ************************************************************************************

 ***************** Stress Tensor *****************
 *                                               *
 *          Cartesian components (GPa)           *
 * --------------------------------------------- *
 *             x             y             z     *
 *                                               *
 *  x     -0.007192      0.000007      0.000008  *
 *  y      0.000007     -0.007186     -0.000037  *
 *  z      0.000008     -0.000037     -0.013342  *
 *                                               *
 *  Pressure:    0.0092                          *
 *                                               *
 *************************************************
  
 +------------+-------------+-------------+-----------------+ <-- min LBFGS
 |    Step    |   lambda    |   F.delta'  |    enthalpy     | <-- min LBFGS
 +------------+-------------+-------------+-----------------+ <-- min LBFGS
 |  previous  |    0.000000 |    0.013676 |    -3087.002199 | <-- min LBFGS
 | trial step |    1.000000 |    0.001076 |    -3087.001428 | <-- min LBFGS
 +------------+-------------+-------------+-----------------+ <-- min LBFGS
  
 LBFGS: finished iteration     2 with enthalpy= -3.08700143E+003 eV
  
 +-----------+-----------------+-----------------+------------+-----+ <-- LBFGS
 | Parameter |      value      |    tolerance    |    units   | OK? | <-- LBFGS
 +-----------+-----------------+-----------------+------------+-----+ <-- LBFGS
 |  dE/ion   |   7.709139E-005 |   1.000000E-005 |         eV | No  | <-- LBFGS
 |  |F|max   |   2.065749E-002 |   1.000000E-002 |       eV/A | No  | <-- LBFGS
 |  |dR|max  |   1.368725E-004 |   1.000000E-003 |          A | Yes | <-- LBFGS
 |   Smax    |   1.334175E-002 |   1.000000E-001 |        GPa | Yes | <-- LBFGS
 +-----------+-----------------+-----------------+------------+-----+ <-- LBFGS
  

================================================================================
 Starting LBFGS iteration          3 ...
================================================================================
  
 +------------+-------------+-------------+-----------------+ <-- min LBFGS
 |    Step    |   lambda    |   F.delta'  |    enthalpy     | <-- min LBFGS
 +------------+-------------+-------------+-----------------+ <-- min LBFGS
 |  previous  |    0.000000 |    0.005276 |    -3087.001428 | <-- min LBFGS
 +------------+-------------+-------------+-----------------+ <-- min LBFGS
  

--------------------------------------------------------------------------------
 LBFGS: starting iteration         3 with trial guess (lambda=  1.000000)
--------------------------------------------------------------------------------
 
+---------------- MEMORY AND SCRATCH DISK ESTIMATES PER PROCESS --------------+
|                                                     Memory          Disk    |
| Model and support data                              159.3 MB         0.0 MB |
| Electronic energy minimisation requirements          23.3 MB         0.0 MB |
| Geometry minimisation requirements                   27.0 MB         0.0 MB |
|                                               ----------------------------- |
| Approx. total storage required per process          209.5 MB         0.0 MB |
|                                                                             |
| Requirements will fluctuate during execution and may exceed these estimates |
+-----------------------------------------------------------------------------+
 

                           -------------------------------
                                      Unit Cell
                           -------------------------------
        Real Lattice(A)              Reciprocal Lattice(1/A)
     2.3966665     1.3837159     4.3596719        1.310817549   0.756800900   0.480402052
    -2.3966668     1.3837160     4.3596720       -1.310817513   0.756800882   0.480401981
    -0.0000001    -2.7674321     4.3596717        0.000000003  -1.513601872   0.480401983

                       Lattice parameters(A)       Cell Angles
                    a =      5.163857          alpha =   55.307000
                    b =      5.163857          beta  =   55.307000
                    c =      5.163857          gamma =   55.307003

                Current cell volume =            86.748036 A**3
                            density =             2.350746 amu/A**3
                                    =             3.903505 g/cm^3

                           -------------------------------
                                     Cell Contents
                           -------------------------------

            xxxxxxxxxxxxxxxxxxxxxxxxxxxxxxxxxxxxxxxxxxxxxxxxxxxxxxxxxxxxxxxxx
            x  Element         Atom        Fractional coordinates of atoms  x
            x                 Number           u          v          w      x
            x---------------------------------------------------------------x
            x  O                 1         0.556347   0.943653   0.250000   x
            x  O                 2         0.943653   0.250000   0.556347   x
            x  O                 3         0.250000   0.556347   0.943652   x
            x  O                 4         0.056347   0.750000   0.443653   x
            x  O                 5         0.750000   0.443653   0.056347   x
            x  O                 6         0.443653   0.056347   0.750000   x
            x  Al                1         0.147908   0.147908   0.147907   x
            x  Al                2         0.647908   0.647908   0.647907   x
            x  Al                3         0.852093   0.852093   0.852092   x
            x  Al                4         0.352093   0.352093   0.352092   x
            xxxxxxxxxxxxxxxxxxxxxxxxxxxxxxxxxxxxxxxxxxxxxxxxxxxxxxxxxxxxxxxxx


------------------------------------------------------------------------ <-- SCF
SCF loop      Energy           Fermi           Energy gain       Timer   <-- SCF
                               energy          per atom          (sec)   <-- SCF
------------------------------------------------------------------------ <-- SCF
Initial  -3.08696299E+003  0.00000000E+000                        68.86  <-- SCF
      1  -3.08696850E+003  9.25323998E+000   5.51619316E-004      69.48  <-- SCF
      2  -3.08696851E+003  9.25323989E+000   5.64657822E-007      70.17  <-- SCF
      3  -3.08696846E+003  9.25523564E+000  -4.86698466E-006      70.86  <-- SCF
      4  -3.08696846E+003  9.25451872E+000  -6.23040105E-008      71.51  <-- SCF
------------------------------------------------------------------------ <-- SCF
 
Final energy, E             =  -3086.968458619     eV
Final free energy (E-TS)    =  -3086.968458619     eV
(energies not corrected for finite basis set)
 
NB est. 0K energy (E-0.5TS)      =  -3086.968458619     eV
 

 ************************************** Forces **************************************
 *                                                                                  *
 *                           Cartesian components (eV/A)                            *
 * -------------------------------------------------------------------------------- *
 *                         x                    y                    z              *
 *                                                                                  *
 * O               1      0.03288              0.00001              0.00000         *
 * O               2     -0.01646             -0.02853             -0.00000         *
 * O               3     -0.01645              0.02849              0.00001         *
 * O               4      0.01649              0.02852             -0.00002         *
 * O               5      0.01641             -0.02847              0.00000         *
 * O               6     -0.03290              0.00000              0.00001         *
 * Al              1      0.00001              0.00000             -0.00109         *
 * Al              2      0.00001             -0.00000             -0.00109         *
 * Al              3      0.00000             -0.00001              0.00109         *
 * Al              4      0.00000             -0.00000              0.00109         *
 *                                                                                  *
 ************************************************************************************

 ***************** Stress Tensor *****************
 *                                               *
 *          Cartesian components (GPa)           *
 * --------------------------------------------- *
 *             x             y             z     *
 *                                               *
 *  x     -0.024871     -0.000018      0.000012  *
 *  y     -0.000018     -0.024928     -0.000006  *
 *  z      0.000012     -0.000006     -0.142335  *
 *                                               *
 *  Pressure:    0.0640                          *
 *                                               *
 *************************************************
  
 +------------+-------------+-------------+-----------------+ <-- min LBFGS
 |    Step    |   lambda    |   F.delta'  |    enthalpy     | <-- min LBFGS
 +------------+-------------+-------------+-----------------+ <-- min LBFGS
 |  previous  |    0.000000 |    0.005276 |    -3087.001428 | <-- min LBFGS
 | trial step |    1.000000 |    0.009454 |    -3087.001108 | <-- min LBFGS
 +------------+-------------+-------------+-----------------+ <-- min LBFGS
  

--------------------------------------------------------------------------------
 LBFGS: improving iteration         3 with line minimization (lambda= -1.262840)
--------------------------------------------------------------------------------

                           -------------------------------
                                      Unit Cell
                           -------------------------------
        Real Lattice(A)              Reciprocal Lattice(1/A)
     2.3964838     1.3836101     4.3593052        1.310917535   0.756858651   0.480442480
    -2.3964839     1.3836102     4.3593052       -1.310917522   0.756858638   0.480442465
    -0.0000000    -2.7672213     4.3593052       -0.000000004  -1.513717289   0.480442298

                       Lattice parameters(A)       Cell Angles
                    a =      5.163434          alpha =   55.307335
                    b =      5.163434          beta  =   55.307335
                    c =      5.163434          gamma =   55.307339

                Current cell volume =            86.727508 A**3
                            density =             2.351302 amu/A**3
                                    =             3.904429 g/cm^3

                           -------------------------------
                                     Cell Contents
                           -------------------------------

            xxxxxxxxxxxxxxxxxxxxxxxxxxxxxxxxxxxxxxxxxxxxxxxxxxxxxxxxxxxxxxxxx
            x  Element         Atom        Fractional coordinates of atoms  x
            x                 Number           u          v          w      x
            x---------------------------------------------------------------x
            x  O                 1         0.556293   0.943707   0.250000   x
            x  O                 2         0.943707   0.250000   0.556293   x
            x  O                 3         0.250000   0.556293   0.943707   x
            x  O                 4         0.056293   0.750000   0.443707   x
            x  O                 5         0.750000   0.443707   0.056293   x
            x  O                 6         0.443707   0.056293   0.750000   x
            x  Al                1         0.147908   0.147908   0.147908   x
            x  Al                2         0.647908   0.647908   0.647908   x
            x  Al                3         0.852092   0.852092   0.852092   x
            x  Al                4         0.352092   0.352092   0.352092   x
            xxxxxxxxxxxxxxxxxxxxxxxxxxxxxxxxxxxxxxxxxxxxxxxxxxxxxxxxxxxxxxxxx


------------------------------------------------------------------------ <-- SCF
SCF loop      Energy           Fermi           Energy gain       Timer   <-- SCF
                               energy          per atom          (sec)   <-- SCF
------------------------------------------------------------------------ <-- SCF
Initial  -3.08696666E+003  0.00000000E+000                        79.99  <-- SCF
      1  -3.08696770E+003  9.26167370E+000   1.03881190E-004      80.68  <-- SCF
      2  -3.08696771E+003  9.26167369E+000   1.20232614E-006      81.33  <-- SCF
      3  -3.08696748E+003  9.25833057E+000  -2.31470636E-005      82.22  <-- SCF
      4  -3.08696747E+003  9.25990083E+000  -1.08051192E-006      82.87  <-- SCF
      5  -3.08696747E+003  9.25966168E+000  -1.05346718E-008      83.52  <-- SCF
------------------------------------------------------------------------ <-- SCF
 
Final energy, E             =  -3086.967466729     eV
Final free energy (E-TS)    =  -3086.967466729     eV
(energies not corrected for finite basis set)
 
NB est. 0K energy (E-0.5TS)      =  -3086.967466729     eV
 

 ************************************** Forces **************************************
 *                                                                                  *
 *                           Cartesian components (eV/A)                            *
 * -------------------------------------------------------------------------------- *
 *                         x                    y                    z              *
 *                                                                                  *
 * O               1      0.01757              0.00001             -0.00000         *
 * O               2     -0.00879             -0.01520              0.00003         *
 * O               3     -0.00878              0.01519              0.00000         *
 * O               4      0.00880              0.01520             -0.00002         *
 * O               5      0.00878             -0.01519             -0.00001         *
 * O               6     -0.01756             -0.00001             -0.00000         *
 * Al              1     -0.00000              0.00001             -0.00120         *
 * Al              2      0.00000             -0.00000             -0.00120         *
 * Al              3     -0.00000             -0.00001              0.00121         *
 * Al              4     -0.00001              0.00000              0.00121         *
 *                                                                                  *
 ************************************************************************************

 ***************** Stress Tensor *****************
 *                                               *
 *          Cartesian components (GPa)           *
 * --------------------------------------------- *
 *             x             y             z     *
 *                                               *
 *  x     -0.091730      0.000006      0.000004  *
 *  y      0.000006     -0.091746     -0.000005  *
 *  z      0.000004     -0.000005     -0.089962  *
 *                                               *
 *  Pressure:    0.0911                          *
 *                                               *
 *************************************************
  
 +------------+-------------+-------------+-----------------+ <-- min LBFGS
 |    Step    |   lambda    |   F.delta'  |    enthalpy     | <-- min LBFGS
 +------------+-------------+-------------+-----------------+ <-- min LBFGS
 |  previous  |    0.000000 |    0.005276 |    -3087.001428 | <-- min LBFGS
 | trial step |    1.000000 |    0.009454 |    -3087.001108 | <-- min LBFGS
 |  line step |   -1.262840 |    0.006169 |    -3087.001405 | <-- min LBFGS
 +------------+-------------+-------------+-----------------+ <-- min LBFGS
  

--------------------------------------------------------------------------------
 LBFGS: improving iteration         3 with quad minimization (lambda=-17.847222)
--------------------------------------------------------------------------------

                           -------------------------------
                                      Unit Cell
                           -------------------------------
        Real Lattice(A)              Reciprocal Lattice(1/A)
     2.3951446     1.3828347     4.3566175        1.311650796   0.757282175   0.480738986
    -2.3951433     1.3828347     4.3566167       -1.311650956   0.757282200   0.480739382
     0.0000006    -2.7656764     4.3566190       -0.000000058  -1.514563722   0.480737979

                       Lattice parameters(A)       Cell Angles
                    a =      5.160336          alpha =   55.309792
                    b =      5.160335          beta  =   55.309786
                    c =      5.160339          gamma =   55.309808

                Current cell volume =            86.577158 A**3
                            density =             2.355385 amu/A**3
                                    =             3.911209 g/cm^3

                           -------------------------------
                                     Cell Contents
                           -------------------------------

            xxxxxxxxxxxxxxxxxxxxxxxxxxxxxxxxxxxxxxxxxxxxxxxxxxxxxxxxxxxxxxxxx
            x  Element         Atom        Fractional coordinates of atoms  x
            x                 Number           u          v          w      x
            x---------------------------------------------------------------x
            x  O                 1         0.555895   0.944105   0.250000   x
            x  O                 2         0.944105   0.250000   0.555895   x
            x  O                 3         0.250000   0.555894   0.944106   x
            x  O                 4         0.055895   0.750001   0.444105   x
            x  O                 5         0.750000   0.444106   0.055894   x
            x  O                 6         0.444105   0.055895   0.750000   x
            x  Al                1         0.147914   0.147914   0.147914   x
            x  Al                2         0.647915   0.647914   0.647914   x
            x  Al                3         0.852086   0.852086   0.852085   x
            x  Al                4         0.352086   0.352086   0.352086   x
            xxxxxxxxxxxxxxxxxxxxxxxxxxxxxxxxxxxxxxxxxxxxxxxxxxxxxxxxxxxxxxxxx


------------------------------------------------------------------------ <-- SCF
SCF loop      Energy           Fermi           Energy gain       Timer   <-- SCF
                               energy          per atom          (sec)   <-- SCF
------------------------------------------------------------------------ <-- SCF
Initial  -3.08694735E+003  0.00000000E+000                        91.99  <-- SCF
      1  -3.08699229E+003  9.31389111E+000   4.49418317E-003      92.67  <-- SCF
      2  -3.08699300E+003  9.31389071E+000   7.12014972E-005      93.67  <-- SCF
      3  -3.08698132E+003  9.28680048E+000  -1.16808502E-003      94.65  <-- SCF
      4  -3.08698058E+003  9.29989703E+000  -7.47297050E-005      95.68  <-- SCF
      5  -3.08698048E+003  9.29694414E+000  -9.50915336E-006      96.59  <-- SCF
      6  -3.08698048E+003  9.29670558E+000   1.81024028E-007      97.29  <-- SCF
------------------------------------------------------------------------ <-- SCF
 
Final energy, E             =  -3086.980482820     eV
Final free energy (E-TS)    =  -3086.980482820     eV
(energies not corrected for finite basis set)
 
NB est. 0K energy (E-0.5TS)      =  -3086.980482820     eV
 

 ************************************** Forces **************************************
 *                                                                                  *
 *                           Cartesian components (eV/A)                            *
 * -------------------------------------------------------------------------------- *
 *                         x                    y                    z              *
 *                                                                                  *
 * O               1      0.05889              0.00003             -0.00003         *
 * O               2     -0.02947             -0.05100              0.00000         *
 * O               3     -0.02946              0.05105              0.00001         *
 * O               4      0.02948              0.05100             -0.00002         *
 * O               5      0.02945             -0.05105             -0.00001         *
 * O               6     -0.05884             -0.00003              0.00003         *
 * Al              1      0.00000              0.00004             -0.00888         *
 * Al              2     -0.00003             -0.00001             -0.00889         *
 * Al              3     -0.00002             -0.00003              0.00889         *
 * Al              4     -0.00000              0.00002              0.00889         *
 *                                                                                  *
 ************************************************************************************

 ***************** Stress Tensor *****************
 *                                               *
 *          Cartesian components (GPa)           *
 * --------------------------------------------- *
 *             x             y             z     *
 *                                               *
 *  x     -0.624313      0.000198      0.000028  *
 *  y      0.000198     -0.624668     -0.000314  *
 *  z      0.000028     -0.000314     -0.663187  *
 *                                               *
 *  Pressure:    0.6374                          *
 *                                               *
 *************************************************
  
 +------------+-------------+-------------+-----------------+ <-- min LBFGS
 |    Step    |   lambda    |   F.delta'  |    enthalpy     | <-- min LBFGS
 +------------+-------------+-------------+-----------------+ <-- min LBFGS
 |  previous  |    0.000000 |    0.005276 |    -3087.001428 | <-- min LBFGS
 | trial step |    1.000000 |    0.009454 |    -3087.001108 | <-- min LBFGS
 |  line step |   -1.262840 |    0.006169 |    -3087.001405 | <-- min LBFGS
 |  quad step |  -17.847222 |    0.027421 |    -3087.002231 | <-- min LBFGS
 +------------+-------------+-------------+-----------------+ <-- min LBFGS
  
 LBFGS: reverting to earlier configuration

                           -------------------------------
                                      Unit Cell
                           -------------------------------
        Real Lattice(A)              Reciprocal Lattice(1/A)
     2.3964838     1.3836101     4.3593052        1.310917535   0.756858651   0.480442480
    -2.3964839     1.3836102     4.3593052       -1.310917522   0.756858638   0.480442465
    -0.0000000    -2.7672213     4.3593052       -0.000000004  -1.513717289   0.480442298

                       Lattice parameters(A)       Cell Angles
                    a =      5.163434          alpha =   55.307335
                    b =      5.163434          beta  =   55.307335
                    c =      5.163434          gamma =   55.307339

                Current cell volume =            86.727508 A**3
                            density =             2.351302 amu/A**3
                                    =             3.904429 g/cm^3

                           -------------------------------
                                     Cell Contents
                           -------------------------------

            xxxxxxxxxxxxxxxxxxxxxxxxxxxxxxxxxxxxxxxxxxxxxxxxxxxxxxxxxxxxxxxxx
            x  Element         Atom        Fractional coordinates of atoms  x
            x                 Number           u          v          w      x
            x---------------------------------------------------------------x
            x  O                 1         0.556293   0.943707   0.250000   x
            x  O                 2         0.943707   0.250000   0.556293   x
            x  O                 3         0.250000   0.556293   0.943707   x
            x  O                 4         0.056293   0.750000   0.443707   x
            x  O                 5         0.750000   0.443707   0.056293   x
            x  O                 6         0.443707   0.056293   0.750000   x
            x  Al                1         0.147908   0.147908   0.147908   x
            x  Al                2         0.647908   0.647908   0.647908   x
            x  Al                3         0.852092   0.852092   0.852092   x
            x  Al                4         0.352092   0.352092   0.352092   x
            xxxxxxxxxxxxxxxxxxxxxxxxxxxxxxxxxxxxxxxxxxxxxxxxxxxxxxxxxxxxxxxxx


 LBFGS: finished iteration     3 with enthalpy= -3.08700141E+003 eV
  
 +-----------+-----------------+-----------------+------------+-----+ <-- LBFGS
 | Parameter |      value      |    tolerance    |    units   | OK? | <-- LBFGS
 +-----------+-----------------+-----------------+------------+-----+ <-- LBFGS
 |  dE/ion   |   2.295136E-006 |   1.000000E-005 |         eV | Yes | <-- LBFGS
 |  |F|max   |   1.756868E-002 |   1.000000E-002 |       eV/A | No  | <-- LBFGS
 |  |dR|max  |   1.455054E-004 |   1.000000E-003 |          A | Yes | <-- LBFGS
 |   Smax    |   9.174557E-002 |   1.000000E-001 |        GPa | Yes | <-- LBFGS
 +-----------+-----------------+-----------------+------------+-----+ <-- LBFGS
  

================================================================================
 Starting LBFGS iteration          4 ...
================================================================================
  
 +------------+-------------+-------------+-----------------+ <-- min LBFGS
 |    Step    |   lambda    |   F.delta'  |    enthalpy     | <-- min LBFGS
 +------------+-------------+-------------+-----------------+ <-- min LBFGS
 |  previous  |    0.000000 |    0.006151 |    -3087.001405 | <-- min LBFGS
 +------------+-------------+-------------+-----------------+ <-- min LBFGS
  

--------------------------------------------------------------------------------
 LBFGS: starting iteration         4 with trial guess (lambda=  1.000000)
--------------------------------------------------------------------------------
 
+---------------- MEMORY AND SCRATCH DISK ESTIMATES PER PROCESS --------------+
|                                                     Memory          Disk    |
| Model and support data                              159.3 MB         0.0 MB |
| Electronic energy minimisation requirements          23.4 MB         0.0 MB |
| Geometry minimisation requirements                   27.1 MB         0.0 MB |
|                                               ----------------------------- |
| Approx. total storage required per process          209.8 MB         0.0 MB |
|                                                                             |
| Requirements will fluctuate during execution and may exceed these estimates |
+-----------------------------------------------------------------------------+
 

                           -------------------------------
                                      Unit Cell
                           -------------------------------
        Real Lattice(A)              Reciprocal Lattice(1/A)
     2.3982395     1.3846294     4.3632676        1.309957095   0.756303734   0.480005869
    -2.3982430     1.3846296     4.3632694       -1.309956667   0.756303639   0.480004850
    -0.0000016    -2.7692446     4.3632636        0.000000132  -1.512609063   0.480007848

                       Lattice parameters(A)       Cell Angles
                    a =      5.167868          alpha =   55.299830
                    b =      5.167871          beta  =   55.299845
                    c =      5.167861          gamma =   55.299806

                Current cell volume =            86.933662 A**3
                            density =             2.345726 amu/A**3
                                    =             3.895170 g/cm^3

                           -------------------------------
                                     Cell Contents
                           -------------------------------

            xxxxxxxxxxxxxxxxxxxxxxxxxxxxxxxxxxxxxxxxxxxxxxxxxxxxxxxxxxxxxxxxx
            x  Element         Atom        Fractional coordinates of atoms  x
            x                 Number           u          v          w      x
            x---------------------------------------------------------------x
            x  O                 1         0.557231   0.942769   0.250000   x
            x  O                 2         0.942768   0.250000   0.557232   x
            x  O                 3         0.250001   0.557233   0.942767   x
            x  O                 4         0.057232   0.750000   0.442768   x
            x  O                 5         0.749999   0.442768   0.057233   x
            x  O                 6         0.442769   0.057231   0.750000   x
            x  Al                1         0.147895   0.147895   0.147894   x
            x  Al                2         0.647894   0.647895   0.647895   x
            x  Al                3         0.852105   0.852105   0.852105   x
            x  Al                4         0.352106   0.352105   0.352105   x
[...]
  
 +------------+-------------+-------------+-----------------+ <-- min LBFGS
 |    Step    |   lambda    |   F.delta'  |    enthalpy     | <-- min LBFGS
 +------------+-------------+-------------+-----------------+ <-- min LBFGS
 |  previous  |    0.000000 |    0.001732 |    -3086.998700 | <-- min LBFGS
 | trial step |    1.000000 |    0.001738 |    -3086.998706 | <-- min LBFGS
 |  line step | -296.414420 |    0.279307 |    -3086.852978 | <-- min LBFGS
 +------------+-------------+-------------+-----------------+ <-- min LBFGS
  

--------------------------------------------------------------------------------
 LBFGS: improving iteration         7 with quad minimization (lambda=  2.355315)
--------------------------------------------------------------------------------

                           -------------------------------
                                      Unit Cell
                           -------------------------------
        Real Lattice(A)              Reciprocal Lattice(1/A)
     2.3965344     1.3836391     4.3628419        1.310889305   0.756842231   0.480053480
    -2.3965358     1.3836372     4.3628433       -1.310889631   0.756843273   0.480052727
    -0.0000024    -2.7672812     4.3628438        0.000000740  -1.513685086   0.480052270

                       Lattice parameters(A)       Cell Angles
                    a =      5.166452          alpha =   55.273500
                    b =      5.166453          beta  =   55.273549
                    c =      5.166454          gamma =   55.273550

                Current cell volume =            86.801589 A**3
                            density =             2.349295 amu/A**3
                                    =             3.901096 g/cm^3

                           -------------------------------
                                     Cell Contents
                           -------------------------------

            xxxxxxxxxxxxxxxxxxxxxxxxxxxxxxxxxxxxxxxxxxxxxxxxxxxxxxxxxxxxxxxxx
            x  Element         Atom        Fractional coordinates of atoms  x
            x                 Number           u          v          w      x
            x---------------------------------------------------------------x
            x  O                 1         0.556524   0.943476   0.250000   x
            x  O                 2         0.943476   0.250000   0.556523   x
            x  O                 3         0.250000   0.556524   0.943476   x
            x  O                 4         0.056524   0.750000   0.443476   x
            x  O                 5         0.750000   0.443476   0.056524   x
            x  O                 6         0.443476   0.056524   0.750000   x
            x  Al                1         0.147923   0.147923   0.147922   x
            x  Al                2         0.647923   0.647923   0.647922   x
            x  Al                3         0.852078   0.852077   0.852077   x
            x  Al                4         0.352078   0.352077   0.352077   x
            xxxxxxxxxxxxxxxxxxxxxxxxxxxxxxxxxxxxxxxxxxxxxxxxxxxxxxxxxxxxxxxxx


------------------------------------------------------------------------ <-- SCF
SCF loop      Energy           Fermi           Energy gain       Timer   <-- SCF
                               energy          per atom          (sec)   <-- SCF
------------------------------------------------------------------------ <-- SCF
Initial  -3.08139633E+003  0.00000000E+000                       231.01  <-- SCF
      1  -3.08838797E+003  9.13314303E+000   6.99163401E-001     231.72  <-- SCF
      2  -3.08850718E+003  9.13244727E+000   1.19212424E-002     232.77  <-- SCF
      3  -3.08700226E+003  9.27677172E+000  -1.50492328E-001     233.74  <-- SCF
      4  -3.08698577E+003  9.21175714E+000  -1.64900890E-003     234.82  <-- SCF
      5  -3.08698035E+003  9.24269546E+000  -5.41184922E-004     235.88  <-- SCF
      6  -3.08698023E+003  9.24131872E+000  -1.22581719E-005     236.87  <-- SCF
      7  -3.08698024E+003  9.24148540E+000   5.93275337E-007     237.65  <-- SCF
      8  -3.08698024E+003  9.24183571E+000   3.97532460E-007     238.41  <-- SCF
------------------------------------------------------------------------ <-- SCF
 
Final energy, E             =  -3086.980241645     eV
Final free energy (E-TS)    =  -3086.980241645     eV
(energies not corrected for finite basis set)
 
NB est. 0K energy (E-0.5TS)      =  -3086.980241645     eV
 

 ************************************** Forces **************************************
 *                                                                                  *
 *                           Cartesian components (eV/A)                            *
 * -------------------------------------------------------------------------------- *
 *                         x                    y                    z              *
 *                                                                                  *
 * O               1     -0.00597             -0.00000             -0.00002         *
 * O               2      0.00299              0.00522              0.00001         *
 * O               3      0.00295             -0.00517             -0.00003         *
 * O               4     -0.00299             -0.00521             -0.00001         *
 * O               5     -0.00295              0.00519              0.00003         *
 * O               6      0.00599              0.00000              0.00001         *
 * Al              1      0.00001             -0.00000              0.00420         *
 * Al              2      0.00001              0.00001              0.00419         *
 * Al              3     -0.00001             -0.00001             -0.00418         *
 * Al              4     -0.00001             -0.00002             -0.00420         *
 *                                                                                  *
 ************************************************************************************

 ***************** Stress Tensor *****************
 *                                               *
 *          Cartesian components (GPa)           *
 * --------------------------------------------- *
 *             x             y             z     *
 *                                               *
 *  x     -0.087163      0.000244     -0.000125  *
 *  y      0.000244     -0.087432     -0.000046  *
 *  z     -0.000125     -0.000046      0.036765  *
 *                                               *
 *  Pressure:    0.0459                          *
 *                                               *
 *************************************************
  
 +------------+-------------+-------------+-----------------+ <-- min LBFGS
 |    Step    |   lambda    |   F.delta'  |    enthalpy     | <-- min LBFGS
 +------------+-------------+-------------+-----------------+ <-- min LBFGS
 |  previous  |    0.000000 |    0.001732 |    -3086.998700 | <-- min LBFGS
 | trial step |    1.000000 |    0.001738 |    -3086.998706 | <-- min LBFGS
 |  line step | -296.414420 |    0.279307 |    -3086.852978 | <-- min LBFGS
 |  quad step |    2.355315 |   -0.000750 |    -3086.998704 | <-- min LBFGS
 +------------+-------------+-------------+-----------------+ <-- min LBFGS
  
 LBFGS: finished iteration     7 with enthalpy= -3.08699870E+003 eV
  
 +-----------+-----------------+-----------------+------------+-----+ <-- LBFGS
 | Parameter |      value      |    tolerance    |    units   | OK? | <-- LBFGS
 +-----------+-----------------+-----------------+------------+-----+ <-- LBFGS
 |  dE/ion   |   3.979386E-007 |   1.000000E-005 |         eV | Yes | <-- LBFGS
 |  |F|max   |   6.010696E-003 |   1.000000E-002 |       eV/A | Yes | <-- LBFGS
 |  |dR|max  |   1.609470E-004 |   1.000000E-003 |          A | Yes | <-- LBFGS
 |   Smax    |   8.743231E-002 |   1.000000E-001 |        GPa | Yes | <-- LBFGS
 +-----------+-----------------+-----------------+------------+-----+ <-- LBFGS
  
 LBFGS: Geometry optimization completed successfully.

================================================================================
 LBFGS: Final Configuration:
================================================================================

                           -------------------------------
                                      Unit Cell
                           -------------------------------
        Real Lattice(A)              Reciprocal Lattice(1/A)
     2.3965344     1.3836391     4.3628419        1.310889305   0.756842231   0.480053480
    -2.3965358     1.3836372     4.3628433       -1.310889631   0.756843273   0.480052727
    -0.0000024    -2.7672812     4.3628438        0.000000740  -1.513685086   0.480052270

                       Lattice parameters(A)       Cell Angles
                    a =      5.166452          alpha =   55.273500
                    b =      5.166453          beta  =   55.273549
                    c =      5.166454          gamma =   55.273550

                Current cell volume =            86.801589 A**3
                            density =             2.349295 amu/A**3
                                    =             3.901096 g/cm^3

                           -------------------------------
                                     Cell Contents
                           -------------------------------

            xxxxxxxxxxxxxxxxxxxxxxxxxxxxxxxxxxxxxxxxxxxxxxxxxxxxxxxxxxxxxxxxx
            x  Element         Atom        Fractional coordinates of atoms  x
            x                 Number           u          v          w      x
            x---------------------------------------------------------------x
            x  O                 1         0.556524   0.943476   0.250000   x
            x  O                 2         0.943476   0.250000   0.556523   x
            x  O                 3         0.250000   0.556524   0.943476   x
            x  O                 4         0.056524   0.750000   0.443476   x
            x  O                 5         0.750000   0.443476   0.056524   x
            x  O                 6         0.443476   0.056524   0.750000   x
            x  Al                1         0.147923   0.147923   0.147922   x
            x  Al                2         0.647923   0.647923   0.647922   x
            x  Al                3         0.852078   0.852077   0.852077   x
            x  Al                4         0.352078   0.352077   0.352077   x
            xxxxxxxxxxxxxxxxxxxxxxxxxxxxxxxxxxxxxxxxxxxxxxxxxxxxxxxxxxxxxxxxx


 LBFGS: Final Enthalpy     = -3.08699870E+003 eV
 LBFGS: Final <frequency>  =    1242.06232 cm-1
 LBFGS: Final bulk modulus =     311.29722 GPa

 ************************************** Forces **************************************
 *                                                                                  *
 *                           Cartesian components (eV/A)                            *
 * -------------------------------------------------------------------------------- *
 *                         x                    y                    z              *
 *                                                                                  *
 * O               1     -0.00597             -0.00000             -0.00002         *
 * O               2      0.00299              0.00522              0.00001         *
 * O               3      0.00295             -0.00517             -0.00003         *
 * O               4     -0.00299             -0.00521             -0.00001         *
 * O               5     -0.00295              0.00519              0.00003         *
 * O               6      0.00599              0.00000              0.00001         *
 * Al              1      0.00001             -0.00000              0.00420         *
 * Al              2      0.00001              0.00001              0.00419         *
 * Al              3     -0.00001             -0.00001             -0.00418         *
 * Al              4     -0.00001             -0.00002             -0.00420         *
 *                                                                                  *
 ************************************************************************************

 ***************** Stress Tensor *****************
 *                                               *
 *          Cartesian components (GPa)           *
 * --------------------------------------------- *
 *             x             y             z     *
 *                                               *
 *  x     -0.087163      0.000244     -0.000125  *
 *  y      0.000244     -0.087432     -0.000046  *
 *  z     -0.000125     -0.000046      0.036765  *
 *                                               *
 *  Pressure:    0.0459                          *
 *                                               *
 *************************************************

 Pseudo atomic calculation performed for O 2s2 2p4

 Converged in 21 iterations to a total energy of -430.8269 eV

 Pseudo atomic calculation performed for Al 3s2 3p1

 Converged in 11 iterations to a total energy of -105.9168 eV
Charge spilling parameter for spin component 1 = 0.77%

            Orbital Populations       
     Ion    Atom   Orbital             Charge
  -------------------------------------------
      O     1      S                    1.835
      O     1      Px                   1.718
      O     1      Py                   1.753
      O     1      Pz                   1.741
      O     2      S                    1.835
      O     2      Px                   1.744
      O     2      Py                   1.727
      O     2      Pz                   1.741
      O     3      S                    1.835
      O     3      Px                   1.744
      O     3      Py                   1.727
      O     3      Pz                   1.742
      O     4      S                    1.835
      O     4      Px                   1.744
      O     4      Py                   1.726
      O     4      Pz                   1.741
      O     5      S                    1.835
      O     5      Px                   1.744
      O     5      Py                   1.726
      O     5      Pz                   1.741
      O     6      S                    1.835
      O     6      Px                   1.718
      O     6      Py                   1.752
      O     6      Pz                   1.741
     Al     1      S                    0.522
     Al     1      Px                   0.305
     Al     1      Py                   0.305
     Al     1      Pz                   0.298
     Al     2      S                    0.522
     Al     2      Px                   0.305
     Al     2      Py                   0.305
     Al     2      Pz                   0.298
     Al     3      S                    0.522
     Al     3      Px                   0.305
     Al     3      Py                   0.305
     Al     3      Pz                   0.298
     Al     4      S                    0.522
     Al     4      Px                   0.305
     Al     4      Py                   0.305
     Al     4      Pz                   0.298
  -------------------------------------------
                           Total:      47.999
  -------------------------------------------

     Atomic Populations (Mulliken)
     -----------------------------
Species          Ion     s      p      d      f     Total  Charge (e)
=====================================================================
  O               1     1.84   5.21   0.00   0.00   7.05    -1.05
  O               2     1.84   5.21   0.00   0.00   7.05    -1.05
  O               3     1.84   5.21   0.00   0.00   7.05    -1.05
  O               4     1.84   5.21   0.00   0.00   7.05    -1.05
  O               5     1.84   5.21   0.00   0.00   7.05    -1.05
  O               6     1.84   5.21   0.00   0.00   7.05    -1.05
  Al              1     0.52   0.91   0.00   0.00   1.43     1.57
  Al              2     0.52   0.91   0.00   0.00   1.43     1.57
  Al              3     0.52   0.91   0.00   0.00   1.43     1.57
  Al              4     0.52   0.91   0.00   0.00   1.43     1.57
=====================================================================

                 Bond                   Population      Length (A)
======================================================================
               O 5 -- Al 4                   0.36        1.86791
               O 3 -- Al 2                   0.36        1.86791
               O 4 -- Al 1                   0.36        1.86791
               O 5 -- Al 1                   0.36        1.86791
               O 2 -- Al 3                   0.36        1.86791
               O 6 -- Al 4                   0.36        1.86791
               O 3 -- Al 3                   0.36        1.86791
               O 1 -- Al 2                   0.36        1.86791
               O 6 -- Al 1                   0.36        1.86791
               O 4 -- Al 4                   0.36        1.86791
               O 1 -- Al 3                   0.36        1.86791
               O 2 -- Al 2                   0.36        1.86791
               O 2 -- Al 1                   0.26        1.98583
               O 1 -- Al 4                   0.26        1.98583
               O 4 -- Al 3                   0.26        1.98583
               O 3 -- Al 4                   0.26        1.98583
               O 1 -- Al 1                   0.26        1.98583
               O 5 -- Al 3                   0.26        1.98583
               O 6 -- Al 2                   0.26        1.98583
               O 3 -- Al 1                   0.26        1.98583
               O 6 -- Al 3                   0.26        1.98583
               O 4 -- Al 2                   0.26        1.98583
               O 2 -- Al 4                   0.26        1.98583
               O 5 -- Al 2                   0.26        1.98583
               O 1 -- O 3                   -0.16        2.54471
               O 2 -- O 3                   -0.17        2.54471
               O 5 -- O 6                   -0.16        2.54471
               O 4 -- O 5                   -0.16        2.54471
               O 1 -- O 2                   -0.17        2.54471
               O 4 -- O 6                   -0.16        2.54472
               O 2 -- O 4                   -0.16        2.63944
               O 3 -- O 5                   -0.16        2.63944
               O 1 -- O 6                   -0.16        2.63944
              Al 2 -- Al 3                  -0.50        2.67209
              Al 1 -- Al 4                  -0.50        2.67209
               O 2 -- O 5                   -0.10        2.74463
               O 1 -- O 5                   -0.10        2.74463
               O 3 -- O 6                   -0.10        2.74463
               O 3 -- O 4                   -0.10        2.74463
               O 2 -- O 6                   -0.10        2.74464
               O 1 -- O 4                   -0.10        2.74464
              Al 1 -- Al 3                  -0.63        2.81044
              Al 2 -- Al 4                  -0.63        2.81044
======================================================================


Writing analysis data to al2o3_xc-PBESOL_c-0600_k-3x3x3_geom.castep_bin

Writing model to al2o3_xc-PBESOL_c-0600_k-3x3x3_geom.check
 
 A BibTeX formatted list of references used in this run has been written to 
 al2o3_xc-PBESOL_c-0600_k-3x3x3_geom.bib
 
Initialisation time =      6.96 s
Calculation time    =    240.75 s
Finalisation time   =      0.10 s
Total time          =    247.81 s
Peak Memory Use     = 605288 kB
  
Overall parallel efficiency rating: Excellent (95%)                             
  
Data was distributed by:-
k-point (7-way); efficiency rating: Excellent (95%)                             
  
Parallel notes:
1) Calculation only took 247.7 s, so efficiency estimates may be inaccurate.    
