 +-------------------------------------------------+
 |                                                 |
 |      CCC   AA    SSS  TTTTT  EEEEE  PPPP        |
 |     C     A  A  S       T    E      P   P       |
 |     C     AAAA   SS     T    EEE    PPPP        |
 |     C     A  A     S    T    E      P           |
 |      CCC  A  A  SSS     T    EEEEE  P           |
 |                                                 |
 +-------------------------------------------------+
 |                                                 |
 | Welcome to Academic Release CASTEP version 19.11|          
 | Ab Initio Total Energy Program                  |
 |                                                 |
 | Authors:                                        |
 | M. Segall, M. Probert, C. Pickard, P. Hasnip,   |
 | S. Clark, K. Refson, J. R. Yates, M. Payne      |
 |                                                 |
 | Contributors:                                   |
 | P. Lindan, P. Haynes, J. White, V. Milman,      |
 | N. Govind, M. Gibson, P. Tulip, V. Cocula,      |
 | B. Montanari, D. Quigley, M. Glover,            |
 | L. Bernasconi, A. Perlov, M. Plummer,           |
 | E. McNellis, J. Meyer, J. Gale, D. Jochym       |
 | J. Aarons, B. Walker, R. Gillen, D. Jones       |
 | T. Green, I. J. Bush, C. J. Armstrong,          |
 | E. J. Higgins, E. L. Brown, M. S. McFly,        |
 | J. Wilkins, B-C. Shih, P. J. P. Byrne           |
 |                                                 |
 | Copyright (c) 2000 - 2018                       |
 |                                                 |
 |     Distributed under the terms of an           |
 |     Agreement between the United Kingdom        |
 |     Car-Parrinello (UKCP) Consortium,           |
 |     Daresbury Laboratory and Accelrys, Inc.     |
 |                                                 |
 | Please cite                                     |
 |                                                 |
 |     "First principles methods using CASTEP"     |
 |                                                 |
 |         Zeitschrift fuer Kristallographie       |
 |           220(5-6) pp. 567-570 (2005)           |
 |                                                 |
 | S. J. Clark, M. D. Segall, C. J. Pickard,       |
 | P. J. Hasnip, M. J. Probert, K. Refson,         |
 | M. C. Payne                                     |
 |                                                 |
 |       in all publications arising from          |
 |              your use of CASTEP                 |
 |                                                 |
 +-------------------------------------------------+
 |                                                 |
 |              http://www.castep.org              |
 |                                                 |
 +-------------------------------------------------+



 Compiled for linux_x86_64_gfortran7.0 on Fri, 31 Jan 2020 20:20:28 +0100
 from code version e1fe0d666396+ Castep191_branch Thu, 24 Oct 2019 13:54:03 +0100
 Compiler: GNU Fortran 7.4.0; Optimisation: fast
 MATHLIBS: default (LAPACK version 3.7.1)
 FFT Lib : default
 Fundamental constants values: CODATA 2014

 Run started: Wed, 10 Nov 2021 13:26:20 +0100

 Atomic calculation performed for O: 1s2 2s2 2p4

 Converged in 57 iterations to an ae energy of -2034.019 eV

   ============================================================                
   | Pseudopotential Report - Date of generation 10-11-2021   |                
   ------------------------------------------------------------                
   | Element: O Ionic charge:  6.00 Level of theory: PBESOL   |                
   | Atomic Solver: Koelling-Harmon                           |                
   |                                                          |                
   |               Reference Electronic Structure             |                
   |         Orbital         Occupation         Energy        |                
   |            2s              2.000           -0.875        |                
   |            2p              4.000           -0.330        |                
   |                                                          |                
   |                 Pseudopotential Definition               |                
   |        Beta     l      e      Rc     scheme   norm       |                
   |          1      0   -0.875   1.100     qc      0         |                
   |          2      0    0.250   1.100     qc      0         |                
   |          3      1   -0.330   1.100     qc      0         |                
   |          4      1    0.250   1.100     qc      0         |                
   |         loc     2    0.000   1.100     pn      0         |                
   |                                                          |                
   | Augmentation charge Rinner = 0.769                       |                
   | Partial core correction Rc = 0.769                       |                
   ------------------------------------------------------------                
   | "2|1.1|17|20|23|20:21(qc=8)"                             |                
   ------------------------------------------------------------                
   |      Author: Chris J. Pickard, Cambridge University      |                
   ============================================================                

 Atomic calculation performed for Al: 1s2 2s2 2p6 3s2 3p1

 Converged in 55 iterations to an ae energy of -6590.489 eV

   ============================================================                
   | Pseudopotential Report - Date of generation 10-11-2021   |                
   ------------------------------------------------------------                
   | Element: Al Ionic charge:  3.00 Level of theory: PBESOL  |                
   | Atomic Solver: Koelling-Harmon                           |                
   |                                                          |                
   |               Reference Electronic Structure             |                
   |         Orbital         Occupation         Energy        |                
   |            3s              2.000           -0.284        |                
   |            3p              1.000           -0.099        |                
   |                                                          |                
   |                 Pseudopotential Definition               |                
   |        Beta     l      e      Rc     scheme   norm       |                
   |          1      0   -0.284   2.192     qc      0         |                
   |          2      0    0.250   2.192     qc      0         |                
   |          3      1   -0.099   2.192     qc      0         |                
   |          4      1    0.250   2.192     qc      0         |                
   |          5      2    0.000   2.000     qc      0         |                
   |          6      2    0.250   2.000     qc      0         |                
   |         loc     3    0.000   2.192     pn      0         |                
   |                                                          |                
   | Augmentation charge Rinner = 1.398                       |                
   | Partial core correction Rc = 1.398                       |                
   ------------------------------------------------------------                
   | "3|2.2|2.2|1.4|4|5|5|30:31:32U2U2"                       |                
   ------------------------------------------------------------                
   |      Author: Chris J. Pickard, Cambridge University      |                
   ============================================================                

 Pseudo atomic calculation performed for O 2s2 2p4

 Converged in 21 iterations to a total energy of -430.8269 eV

 Pseudo atomic calculation performed for Al 3s2 3p1

 Converged in 11 iterations to a total energy of -105.9168 eV
 Calculation parallelised over 8 processes.
 Data is distributed by G-vector(2-way) and k-point(4-way)

 ************************************ Title ************************************
 

 ***************************** General Parameters ******************************
  
 output verbosity                               : normal  (1)
 write checkpoint data to                       : al2o3_xc-PBESOL_c-0600_k-2x2x2_geom.check
 type of calculation                            : geometry optimization
 stress calculation                             : off
 density difference calculation                 : off
 electron localisation func (ELF) calculation   : off
 Hirshfeld analysis                             : off
 unlimited duration calculation
 timing information                             : on
 memory usage estimate                          : on
 write extra output files                       : on
 write final potential to formatted file        : off
 write final density to formatted file          : off
 write structure in CIF formatted file          : on
 write structure in CELL formatted file         : on
 write BibTeX reference list                    : on
 write OTFG pseudopotential files               : on
 write electrostatic potential file             : on
 write bands file                               : on
 checkpoint writing                             : both castep_bin and check files
  
 output         length unit                     : A
 output           mass unit                     : amu
 output           time unit                     : ps
 output         charge unit                     : e
 output           spin unit                     : hbar/2
 output         energy unit                     : eV
 output          force unit                     : eV/A
 output       velocity unit                     : A/ps
 output       pressure unit                     : GPa
 output     inv_length unit                     : 1/A
 output      frequency unit                     : cm-1
 output force constant unit                     : eV/A**2
 output         volume unit                     : A**3
 output   IR intensity unit                     : (D/A)**2/amu
 output         dipole unit                     : D
 output         efield unit                     : eV/A/e
 output        entropy unit                     : J/mol/K
  
 wavefunctions paging                           : none
 random number generator seed                   : randomised (132620071)
 data distribution                              : optimal for this architecture
 optimization strategy                          : maximize speed(+++)

 *********************** Exchange-Correlation Parameters ***********************
  
 using functional                               : PBE for solids (2008)
 relativistic treatment                         : Koelling-Harmon
 DFT+D: Semi-empirical dispersion correction    : off

 ************************* Pseudopotential Parameters **************************
  
 pseudopotential representation                 : reciprocal space
 <beta|phi> representation                      : reciprocal space
 spin-orbit coupling                            : off

 **************************** Basis Set Parameters *****************************
  
 plane wave basis set cut-off                   :   600.0000   eV
 size of standard grid                          :     1.7500
 size of   fine   gmax                          :    21.9610   1/A
 finite basis set correction                    : automatic
 number of sample energies                      :          3
           sample  spacing                      :     5.0000   eV

 **************************** Electronic Parameters ****************************
  
 number of  electrons                           :  48.00    
 net charge of system                           :  0.000    
 treating system as non-spin-polarized
 number of bands                                :         29

 ********************* Electronic Minimization Parameters **********************
  
 Method: Treating system as metallic with density mixing treatment of electrons,
         and number of  SD  steps               :          1
         and number of  CG  steps               :          4
  
 total energy / atom convergence tol.           : 0.1000E-04   eV
 eigen-energy convergence tolerance             : 0.1000E-05   eV
 max force / atom convergence tol.              : ignored
 convergence tolerance window                   :          3   cycles
 max. number of SCF cycles                      :         30
 number of fixed-spin iterations                :         10
 smearing scheme                                : Gaussian
 smearing width                                 : 0.2000       eV
 Fermi energy convergence tolerance             : 0.2721E-13   eV
 periodic dipole correction                     : NONE

 ************************** Density Mixing Parameters **************************
  
 density-mixing scheme                          : Broyden
 max. length of mixing history                  :         20
 charge density mixing amplitude                : 0.8000    
 cut-off energy for mixing                      :  600.0       eV

 *********************** Population Analysis Parameters ************************
  
 Population analysis with cutoff                :  3.000       A
 Population analysis output                     : summary and pdos components

 ********************** Geometry Optimization Parameters ***********************
  
 optimization method                            : LBFGS
 max. no. of LBFGS updates                      : unbounded
 variable cell method                           : fixed basis quality
 max. number of steps                           :        150
 estimated bulk modulus                         :  500.0       GPa
 estimated <frequency>                          :  1668.       cm-1
 geom line minimiser                            : on
 with line minimiser tolerance                  :     0.4000
 total energy convergence tolerance             : 0.1000E-04   eV/atom
        max ionic |force| tolerance             : 0.1000E-01   eV/A
 max ionic |displacement| tolerance             : 0.1000E-02   A
   max |stress component| tolerance             : 0.1000       GPa
 convergence tolerance window                   :          2   steps
 backup results every                           :          5   steps
 write geom trajectory file                     : on

 *******************************************************************************
  

                           -------------------------------
                                      Unit Cell
                           -------------------------------
        Real Lattice(A)                      Reciprocal Lattice(1/A)
     2.3801000     1.3741510     4.3310000        1.319941454   0.762068577   0.483582396
    -2.3801000     1.3741510     4.3310000       -1.319941454   0.762068577   0.483582396
     0.0000000    -2.7483030     4.3310000       -0.000000000  -1.524137154   0.483582220

                       Lattice parameters(A)       Cell Angles
                    a =      5.129398          alpha =   55.292535
                    b =      5.129398          beta  =   55.292535
                    c =      5.129399          gamma =   55.292537

                       Current cell volume =            84.990269       A**3
                                   density =             2.399364   AMU/A**3
                                           =             3.984237     g/cm^3

                           -------------------------------
                                     Cell Contents
                           -------------------------------
                         Total number of ions in cell =   10
                      Total number of species in cell =    2
                        Max number of any one species =    6

            xxxxxxxxxxxxxxxxxxxxxxxxxxxxxxxxxxxxxxxxxxxxxxxxxxxxxxxxxxxx
            x  Element    Atom        Fractional coordinates of atoms  x
            x            Number           u          v          w      x
            x----------------------------------------------------------x
            x  O            1         0.556260   0.943740   0.250000   x 
            x  O            2         0.943740   0.250000   0.556260   x 
            x  O            3         0.250000   0.556260   0.943740   x 
            x  O            4         0.056260   0.750000   0.443740   x 
            x  O            5         0.750000   0.443740   0.056260   x 
            x  O            6         0.443740   0.056260   0.750000   x 
            x  Al           1         0.147900   0.147900   0.147900   x 
            x  Al           2         0.647900   0.647900   0.647900   x 
            x  Al           3         0.852100   0.852100   0.852100   x 
            x  Al           4         0.352100   0.352100   0.352100   x 
            xxxxxxxxxxxxxxxxxxxxxxxxxxxxxxxxxxxxxxxxxxxxxxxxxxxxxxxxxxxx


                         No user defined ionic velocities

                           -------------------------------
                                   Details of Species
                           -------------------------------

                               Mass of species in AMU
                                    O   15.9994000
                                    Al   26.9815400

                          Electric Quadrupole Moment (Barn)
                                    O   -0.0255800 Isotope 17
                                    Al    0.1466000 Isotope 27

                          Files used for pseudopotentials:
                                    O 2|1.1|17|20|23|20:21(qc=8)
                                    Al 3|2.2|2.2|1.4|4|5|5|30:31:32U2U2

                           -------------------------------
                              k-Points For BZ Sampling
                           -------------------------------
                       MP grid size for SCF calculation is  2  2  2
                            with an offset of   0.000  0.000  0.000
                       Number of kpoints used =             4

                           -------------------------------
                               Symmetry and Constraints
                           -------------------------------

                      Maximum deviation from symmetry =  0.00000         ANG

                      Number of symmetry operations   =           1
                      Number of ionic constraints     =           3
                      Point group of crystal =     1: C1, 1, 1
                      Space group of crystal =   167: R-3c, -R 3 2"c

             Set iprint > 1 for details on symmetry rotations/translations

                         Centre of mass is constrained
             Set iprint > 1 for details of linear ionic constraints

                         Number of cell constraints= 0
                         Cell constraints are:  1 2 3 4 5 6

                         External pressure/stress (GPa)
                          0.00000   0.00000   0.00000
                                    0.00000   0.00000
                                              0.00000
  
+---------------- MEMORY AND SCRATCH DISK ESTIMATES PER PROCESS --------------+
|                                                     Memory          Disk    |
| Baseline code, static data and system overhead      196.0 MB         0.0 MB |
| BLAS internal memory storage                          0.0 MB         0.0 MB |
| Model and support data                               71.1 MB         0.0 MB |
| Electronic energy minimisation requirements           9.6 MB         0.0 MB |
| Force calculation requirements                        3.5 MB         0.0 MB |
|                                               ----------------------------- |
| Approx. total storage required per process          276.7 MB         0.0 MB |
|                                                                             |
| Requirements will fluctuate during execution and may exceed these estimates |
+-----------------------------------------------------------------------------+
Calculating finite basis set correction with  3 cut-off energies.
Calculating total energy with cut-off of  590.000 eV.
------------------------------------------------------------------------ <-- SCF
SCF loop      Energy           Fermi           Energy gain       Timer   <-- SCF
                               energy          per atom          (sec)   <-- SCF
------------------------------------------------------------------------ <-- SCF
Initial  -2.23959166E+003  0.00000000E+000                         8.37  <-- SCF
      1  -2.87408686E+003  1.27791763E+001   6.34495205E+001       8.57  <-- SCF
      2  -3.08799795E+003  9.55861032E+000   2.13911094E+001       8.74  <-- SCF
      3  -3.09371439E+003  9.46380727E+000   5.71643148E-001       8.92  <-- SCF
      4  -3.08940733E+003  1.12030144E+001  -4.30705874E-001       9.19  <-- SCF
      5  -3.08644447E+003  1.05229931E+001  -2.96285909E-001       9.45  <-- SCF
      6  -3.08649581E+003  1.05604871E+001   5.13420917E-003       9.75  <-- SCF
      7  -3.08649058E+003  1.06005862E+001  -5.23095411E-004      10.02  <-- SCF
      8  -3.08649067E+003  1.06244805E+001   9.42886712E-006      10.29  <-- SCF
      9  -3.08649054E+003  1.06206252E+001  -1.37455001E-005      10.54  <-- SCF
     10  -3.08649053E+003  1.06203134E+001  -2.58771056E-007      10.75  <-- SCF
     11  -3.08649053E+003  1.06204933E+001   3.17538992E-008      10.95  <-- SCF
------------------------------------------------------------------------ <-- SCF
 
Final energy, E             =  -3086.490534004     eV
Final free energy (E-TS)    =  -3086.490534004     eV
(energies not corrected for finite basis set)
 
NB est. 0K energy (E-0.5TS)      =  -3086.490534004     eV
 
Calculating total energy with cut-off of  595.000 eV.
------------------------------------------------------------------------ <-- SCF
SCF loop      Energy           Fermi           Energy gain       Timer   <-- SCF
                               energy          per atom          (sec)   <-- SCF
------------------------------------------------------------------------ <-- SCF
Initial  -3.08649053E+003  0.00000000E+000                        11.19  <-- SCF
      1  -3.08670493E+003  1.06193396E+001   2.14394881E-002      11.34  <-- SCF
      2  -3.08670502E+003  1.06193397E+001   9.30370253E-006      11.58  <-- SCF
      3  -3.08670510E+003  1.06239512E+001   7.32357359E-006      11.80  <-- SCF
      4  -3.08670507E+003  1.06216624E+001  -2.44611045E-006      12.00  <-- SCF
------------------------------------------------------------------------ <-- SCF
 
Final energy, E             =  -3086.705070721     eV
Final free energy (E-TS)    =  -3086.705070721     eV
(energies not corrected for finite basis set)
 
NB est. 0K energy (E-0.5TS)      =  -3086.705070721     eV
 
Calculating total energy with cut-off of  600.000 eV.
------------------------------------------------------------------------ <-- SCF
SCF loop      Energy           Fermi           Energy gain       Timer   <-- SCF
                               energy          per atom          (sec)   <-- SCF
------------------------------------------------------------------------ <-- SCF
Initial  -3.08670507E+003  0.00000000E+000                        12.24  <-- SCF
      1  -3.08694876E+003  1.06208991E+001   2.43686883E-002      12.39  <-- SCF
      2  -3.08694888E+003  1.06208990E+001   1.19988450E-005      12.63  <-- SCF
      3  -3.08694897E+003  1.06264760E+001   9.31147212E-006      12.88  <-- SCF
      4  -3.08694894E+003  1.06237332E+001  -3.63459550E-006      13.08  <-- SCF
------------------------------------------------------------------------ <-- SCF
 
Final energy, E             =  -3086.948937436     eV
Final free energy (E-TS)    =  -3086.948937436     eV
(energies not corrected for finite basis set)
 
NB est. 0K energy (E-0.5TS)      =  -3086.948937436     eV
 
 For future reference: finite basis dEtot/dlog(Ecut) =     -28.121964eV
 Total energy corrected for finite basis set =   -3086.984458 eV
 
+---------------- MEMORY AND SCRATCH DISK ESTIMATES PER PROCESS --------------+
|                                                     Memory          Disk    |
| Model and support data                               81.9 MB         0.0 MB |
| Electronic energy minimisation requirements           9.6 MB         0.0 MB |
| Geometry minimisation requirements                   10.7 MB         0.0 MB |
|                                               ----------------------------- |
| Approx. total storage required per process          102.2 MB         0.0 MB |
|                                                                             |
| Requirements will fluctuate during execution and may exceed these estimates |
+-----------------------------------------------------------------------------+
 

 ************************************** Forces **************************************
 *                                                                                  *
 *                           Cartesian components (eV/A)                            *
 * -------------------------------------------------------------------------------- *
 *                         x                    y                    z              *
 *                                                                                  *
 * O               1      0.01738             -0.00000              0.00004         *
 * O               2     -0.00866             -0.01507             -0.00003         *
 * O               3     -0.00871              0.01506             -0.00001         *
 * O               4      0.00868              0.01507              0.00003         *
 * O               5      0.00869             -0.01506             -0.00000         *
 * O               6     -0.01737             -0.00001             -0.00000         *
 * Al              1     -0.00001              0.00001              0.01722         *
 * Al              2     -0.00000              0.00000              0.01723         *
 * Al              3     -0.00000             -0.00001             -0.01724         *
 * Al              4     -0.00001              0.00001             -0.01724         *
 *                                                                                  *
 ************************************************************************************

 ***************** Stress Tensor *****************
 *                                               *
 *          Cartesian components (GPa)           *
 * --------------------------------------------- *
 *             x             y             z     *
 *                                               *
 *  x     -5.393063     -0.000009     -0.000081  *
 *  y     -0.000009     -5.392913     -0.000016  *
 *  z     -0.000081     -0.000016     -5.079331  *
 *                                               *
 *  Pressure:    5.2884                          *
 *                                               *
 *************************************************
 LBFGS: finished iteration     0 with enthalpy= -3.08698446E+003 eV
  
 +-----------+-----------------+-----------------+------------+-----+ <-- LBFGS
 | Parameter |      value      |    tolerance    |    units   | OK? | <-- LBFGS
 +-----------+-----------------+-----------------+------------+-----+ <-- LBFGS
 |  dE/ion   |   0.000000E+000 |   1.000000E-005 |         eV | No  | <-- LBFGS
 |  |F|max   |   1.739688E-002 |   1.000000E-002 |       eV/A | No  | <-- LBFGS
 |  |dR|max  |   0.000000E+000 |   1.000000E-003 |          A | No  | <-- LBFGS
 |   Smax    |   5.393063E+000 |   1.000000E-001 |        GPa | No  | <-- LBFGS
 +-----------+-----------------+-----------------+------------+-----+ <-- LBFGS
  

================================================================================
 Starting LBFGS iteration          1 ...
================================================================================
  
 +------------+-------------+-------------+-----------------+ <-- min LBFGS
 |    Step    |   lambda    |   F.delta'  |    enthalpy     | <-- min LBFGS
 +------------+-------------+-------------+-----------------+ <-- min LBFGS
 |  previous  |    0.000000 |    0.178711 |    -3086.984458 | <-- min LBFGS
 +------------+-------------+-------------+-----------------+ <-- min LBFGS
  

--------------------------------------------------------------------------------
 LBFGS: starting iteration         1 with trial guess (lambda=  1.000000)
--------------------------------------------------------------------------------
 
+---------------- MEMORY AND SCRATCH DISK ESTIMATES PER PROCESS --------------+
|                                                     Memory          Disk    |
| Model and support data                               81.9 MB         0.0 MB |
| Electronic energy minimisation requirements           9.7 MB         0.0 MB |
| Geometry minimisation requirements                   10.7 MB         0.0 MB |
|                                               ----------------------------- |
| Approx. total storage required per process          102.3 MB         0.0 MB |
|                                                                             |
| Requirements will fluctuate during execution and may exceed these estimates |
+-----------------------------------------------------------------------------+
 

                           -------------------------------
                                      Unit Cell
                           -------------------------------
        Real Lattice(A)              Reciprocal Lattice(1/A)
     2.3886576     1.3790915     4.3456659        1.315212739   0.759338533   0.481950327
    -2.3886571     1.3790915     4.3456656       -1.315212800   0.759338548   0.481950468
     0.0000002    -2.7581839     4.3456657       -0.000000017  -1.518677097   0.481950247

                       Lattice parameters(A)       Cell Angles
                    a =      5.147076          alpha =   55.301452
                    b =      5.147075          beta  =   55.301450
                    c =      5.147076          gamma =   55.301457

                Current cell volume =            85.892372 A**3
                            density =             2.374164 amu/A**3
                                    =             3.942392 g/cm^3

                           -------------------------------
                                     Cell Contents
                           -------------------------------

            xxxxxxxxxxxxxxxxxxxxxxxxxxxxxxxxxxxxxxxxxxxxxxxxxxxxxxxxxxxxxxxxx
            x  Element         Atom        Fractional coordinates of atoms  x
            x                 Number           u          v          w      x
            x---------------------------------------------------------------x
            x  O                 1         0.556278   0.943723   0.250000   x
            x  O                 2         0.943723   0.250000   0.556277   x
            x  O                 3         0.250000   0.556277   0.943722   x
            x  O                 4         0.056277   0.750000   0.443722   x
            x  O                 5         0.750000   0.443723   0.056277   x
            x  O                 6         0.443723   0.056278   0.750000   x
            x  Al                1         0.147906   0.147906   0.147906   x
            x  Al                2         0.647906   0.647906   0.647906   x
            x  Al                3         0.852094   0.852094   0.852093   x
            x  Al                4         0.352094   0.352094   0.352094   x
            xxxxxxxxxxxxxxxxxxxxxxxxxxxxxxxxxxxxxxxxxxxxxxxxxxxxxxxxxxxxxxxxx


------------------------------------------------------------------------ <-- SCF
SCF loop      Energy           Fermi           Energy gain       Timer   <-- SCF
                               energy          per atom          (sec)   <-- SCF
------------------------------------------------------------------------ <-- SCF
Initial  -3.08666726E+003  0.00000000E+000                        15.36  <-- SCF
      1  -3.08702579E+003  1.02900740E+001   3.58531716E-002      15.57  <-- SCF
      2  -3.08702675E+003  1.02900606E+001   9.67224243E-005      15.86  <-- SCF
      3  -3.08699101E+003  1.04812936E+001  -3.57497087E-003      16.15  <-- SCF
      4  -3.08694236E+003  1.03964603E+001  -4.86495152E-003      16.41  <-- SCF
      5  -3.08694305E+003  1.03947516E+001   6.95399947E-005      16.68  <-- SCF
      6  -3.08694305E+003  1.03955344E+001  -3.69476699E-007      16.88  <-- SCF
      7  -3.08694304E+003  1.03977905E+001  -7.90923007E-007      17.06  <-- SCF
------------------------------------------------------------------------ <-- SCF
 
Final energy, E             =  -3086.943039557     eV
Final free energy (E-TS)    =  -3086.943039557     eV
(energies not corrected for finite basis set)
 
NB est. 0K energy (E-0.5TS)      =  -3086.943039557     eV
 

 ************************************** Forces **************************************
 *                                                                                  *
 *                           Cartesian components (eV/A)                            *
 * -------------------------------------------------------------------------------- *
 *                         x                    y                    z              *
 *                                                                                  *
 * O               1      0.01248              0.00001             -0.00000         *
 * O               2     -0.00625             -0.01081             -0.00001         *
 * O               3     -0.00619              0.01074              0.00001         *
 * O               4      0.00607              0.01045              0.00001         *
 * O               5      0.00600             -0.01037             -0.00001         *
 * O               6     -0.01207             -0.00001              0.00000         *
 * Al              1     -0.00003              0.00000              0.00821         *
 * Al              2     -0.00001             -0.00002              0.00826         *
 * Al              3      0.00002             -0.00001             -0.00826         *
 * Al              4     -0.00001              0.00002             -0.00821         *
 *                                                                                  *
 ************************************************************************************

 ***************** Stress Tensor *****************
 *                                               *
 *          Cartesian components (GPa)           *
 * --------------------------------------------- *
 *             x             y             z     *
 *                                               *
 *  x     -2.520817     -0.000082      0.000207  *
 *  y     -0.000082     -2.520802      0.000110  *
 *  z      0.000207      0.000110     -2.235745  *
 *                                               *
 *  Pressure:    2.4258                          *
 *                                               *
 *************************************************
  
 +------------+-------------+-------------+-----------------+ <-- min LBFGS
 |    Step    |   lambda    |   F.delta'  |    enthalpy     | <-- min LBFGS
 +------------+-------------+-------------+-----------------+ <-- min LBFGS
 |  previous  |    0.000000 |    0.178711 |    -3086.984458 | <-- min LBFGS
 | trial step |    1.000000 |    0.082629 |    -3086.988667 | <-- min LBFGS
 +------------+-------------+-------------+-----------------+ <-- min LBFGS
  

--------------------------------------------------------------------------------
 LBFGS: improving iteration         1 with line minimization (lambda=  1.859988)
--------------------------------------------------------------------------------
 
+---------------- MEMORY AND SCRATCH DISK ESTIMATES PER PROCESS --------------+
|                                                     Memory          Disk    |
| Model and support data                               97.3 MB         0.0 MB |
| Electronic energy minimisation requirements          10.6 MB         0.0 MB |
| Geometry minimisation requirements                   11.8 MB         0.0 MB |
|                                               ----------------------------- |
| Approx. total storage required per process          119.6 MB         0.0 MB |
|                                                                             |
| Requirements will fluctuate during execution and may exceed these estimates |
+-----------------------------------------------------------------------------+
 

                           -------------------------------
                                      Unit Cell
                           -------------------------------
        Real Lattice(A)              Reciprocal Lattice(1/A)
     2.3960170     1.3833403     4.3582783        1.311173118   0.757006325   0.480555553
    -2.3960161     1.3833402     4.3582779       -1.311173229   0.757006353   0.480555813
     0.0000004    -2.7666813     4.3582780       -0.000000031  -1.514012707   0.480555554

                       Lattice parameters(A)       Cell Angles
                    a =      5.162278          alpha =   55.309072
                    b =      5.162278          beta  =   55.309068
                    c =      5.162278          gamma =   55.309079

                Current cell volume =            86.673254 A**3
                            density =             2.352774 amu/A**3
                                    =             3.906873 g/cm^3

                           -------------------------------
                                     Cell Contents
                           -------------------------------

            xxxxxxxxxxxxxxxxxxxxxxxxxxxxxxxxxxxxxxxxxxxxxxxxxxxxxxxxxxxxxxxxx
            x  Element         Atom        Fractional coordinates of atoms  x
            x                 Number           u          v          w      x
            x---------------------------------------------------------------x
            x  O                 1         0.556293   0.943707   0.250000   x
            x  O                 2         0.943708   0.250000   0.556292   x
            x  O                 3         0.250000   0.556293   0.943707   x
            x  O                 4         0.056292   0.750000   0.443707   x
            x  O                 5         0.750000   0.443708   0.056292   x
            x  O                 6         0.443708   0.056293   0.750000   x
            x  Al                1         0.147912   0.147912   0.147912   x
            x  Al                2         0.647912   0.647912   0.647912   x
            x  Al                3         0.852088   0.852088   0.852088   x
            x  Al                4         0.352088   0.352088   0.352088   x
            xxxxxxxxxxxxxxxxxxxxxxxxxxxxxxxxxxxxxxxxxxxxxxxxxxxxxxxxxxxxxxxxx


------------------------------------------------------------------------ <-- SCF
SCF loop      Energy           Fermi           Energy gain       Timer   <-- SCF
                               energy          per atom          (sec)   <-- SCF
------------------------------------------------------------------------ <-- SCF
Initial  -3.08669984E+003  0.00000000E+000                        20.74  <-- SCF
      1  -3.08699647E+003  1.01085057E+001   2.96629840E-002      21.01  <-- SCF
      2  -3.08699727E+003  1.01084325E+001   8.00453025E-005      21.41  <-- SCF
      3  -3.08697115E+003  1.02737656E+001  -2.61177505E-003      21.81  <-- SCF
      4  -3.08693450E+003  1.02001927E+001  -3.66550579E-003      22.17  <-- SCF
      5  -3.08693504E+003  1.01986490E+001   5.39093382E-005      22.54  <-- SCF
      6  -3.08693503E+003  1.01993938E+001  -4.43654513E-007      22.81  <-- SCF
      7  -3.08693503E+003  1.02015842E+001  -4.98858611E-007      23.06  <-- SCF
------------------------------------------------------------------------ <-- SCF
 
Final energy, E             =  -3086.935026212     eV
Final free energy (E-TS)    =  -3086.935026212     eV
(energies not corrected for finite basis set)
 
NB est. 0K energy (E-0.5TS)      =  -3086.935026212     eV
 

 ************************************** Forces **************************************
 *                                                                                  *
 *                           Cartesian components (eV/A)                            *
 * -------------------------------------------------------------------------------- *
 *                         x                    y                    z              *
 *                                                                                  *
 * O               1      0.00571              0.00001              0.00002         *
 * O               2     -0.00287             -0.00496             -0.00003         *
 * O               3     -0.00284              0.00493              0.00001         *
 * O               4      0.00273              0.00469              0.00003         *
 * O               5      0.00270             -0.00466             -0.00001         *
 * O               6     -0.00541             -0.00001             -0.00002         *
 * Al              1     -0.00004              0.00001              0.00211         *
 * Al              2      0.00000             -0.00003              0.00210         *
 * Al              3      0.00003             -0.00001             -0.00210         *
 * Al              4     -0.00001              0.00003             -0.00211         *
 *                                                                                  *
 ************************************************************************************

 ***************** Stress Tensor *****************
 *                                               *
 *          Cartesian components (GPa)           *
 * --------------------------------------------- *
 *             x             y             z     *
 *                                               *
 *  x     -0.174669     -0.000086      0.000194  *
 *  y     -0.000086     -0.174656      0.000143  *
 *  z      0.000194      0.000143     -0.457429  *
 *                                               *
 *  Pressure:    0.2689                          *
 *                                               *
 *************************************************
  
 +------------+-------------+-------------+-----------------+ <-- min LBFGS
 |    Step    |   lambda    |   F.delta'  |    enthalpy     | <-- min LBFGS
 +------------+-------------+-------------+-----------------+ <-- min LBFGS
 |  previous  |    0.000000 |    0.178711 |    -3086.984458 | <-- min LBFGS
 | trial step |    1.000000 |    0.082629 |    -3086.988667 | <-- min LBFGS
 |  line step |    1.859988 |    0.009090 |    -3086.979078 | <-- min LBFGS
 +------------+-------------+-------------+-----------------+ <-- min LBFGS
  
 LBFGS: finished iteration     1 with enthalpy= -3.08697908E+003 eV
  
 +-----------+-----------------+-----------------+------------+-----+ <-- LBFGS
 | Parameter |      value      |    tolerance    |    units   | OK? | <-- LBFGS
 +-----------+-----------------+-----------------+------------+-----+ <-- LBFGS
 |  dE/ion   |   5.380423E-004 |   1.000000E-005 |         eV | No  | <-- LBFGS
 |  |F|max   |   5.724765E-003 |   1.000000E-002 |       eV/A | Yes | <-- LBFGS
 |  |dR|max  |   1.561609E-004 |   1.000000E-003 |          A | Yes | <-- LBFGS
 |   Smax    |   4.574285E-001 |   1.000000E-001 |        GPa | No  | <-- LBFGS
 +-----------+-----------------+-----------------+------------+-----+ <-- LBFGS
  

================================================================================
 Starting LBFGS iteration          2 ...
================================================================================
  
 +------------+-------------+-------------+-----------------+ <-- min LBFGS
 |    Step    |   lambda    |   F.delta'  |    enthalpy     | <-- min LBFGS
 +------------+-------------+-------------+-----------------+ <-- min LBFGS
 |  previous  |    0.000000 |    0.010101 |    -3086.979078 | <-- min LBFGS
 +------------+-------------+-------------+-----------------+ <-- min LBFGS
  

--------------------------------------------------------------------------------
 LBFGS: starting iteration         2 with trial guess (lambda=  1.000000)
--------------------------------------------------------------------------------
 
+---------------- MEMORY AND SCRATCH DISK ESTIMATES PER PROCESS --------------+
|                                                     Memory          Disk    |
| Model and support data                               97.3 MB         0.0 MB |
| Electronic energy minimisation requirements          10.6 MB         0.0 MB |
| Geometry minimisation requirements                   11.8 MB         0.0 MB |
|                                               ----------------------------- |
| Approx. total storage required per process          119.7 MB         0.0 MB |
|                                                                             |
| Requirements will fluctuate during execution and may exceed these estimates |
+-----------------------------------------------------------------------------+
 

                           -------------------------------
                                      Unit Cell
                           -------------------------------
        Real Lattice(A)              Reciprocal Lattice(1/A)
     2.3967138     1.3837426     4.3603761        1.310791662   0.756786059   0.480324554
    -2.3967139     1.3837422     4.3603763       -1.310791737   0.756786248   0.480324461
    -0.0000004    -2.7674868     4.3603766        0.000000126  -1.513572192   0.480324151

                       Lattice parameters(A)       Cell Angles
                    a =      5.164481          alpha =   55.300918
                    b =      5.164481          beta  =   55.300926
                    c =      5.164481          gamma =   55.300935

                Current cell volume =            86.765461 A**3
                            density =             2.350273 amu/A**3
                                    =             3.902721 g/cm^3

                           -------------------------------
                                     Cell Contents
                           -------------------------------

            xxxxxxxxxxxxxxxxxxxxxxxxxxxxxxxxxxxxxxxxxxxxxxxxxxxxxxxxxxxxxxxxx
            x  Element         Atom        Fractional coordinates of atoms  x
            x                 Number           u          v          w      x
            x---------------------------------------------------------------x
            x  O                 1         0.556300   0.943701   0.250000   x
            x  O                 2         0.943701   0.250000   0.556299   x
            x  O                 3         0.250000   0.556299   0.943700   x
            x  O                 4         0.056299   0.750000   0.443701   x
            x  O                 5         0.750000   0.443701   0.056299   x
            x  O                 6         0.443701   0.056299   0.750000   x
            x  Al                1         0.147913   0.147913   0.147913   x
            x  Al                2         0.647913   0.647913   0.647913   x
            x  Al                3         0.852087   0.852087   0.852087   x
            x  Al                4         0.352087   0.352087   0.352087   x
            xxxxxxxxxxxxxxxxxxxxxxxxxxxxxxxxxxxxxxxxxxxxxxxxxxxxxxxxxxxxxxxxx


------------------------------------------------------------------------ <-- SCF
SCF loop      Energy           Fermi           Energy gain       Timer   <-- SCF
                               energy          per atom          (sec)   <-- SCF
------------------------------------------------------------------------ <-- SCF
Initial  -3.08691404E+003  0.00000000E+000                        26.54  <-- SCF
      1  -3.08695310E+003  1.01667823E+001   3.90624569E-003      26.77  <-- SCF
      2  -3.08695316E+003  1.01667785E+001   6.55433760E-006      27.12  <-- SCF
      3  -3.08695271E+003  1.01875894E+001  -4.54022085E-005      27.50  <-- SCF
      4  -3.08695215E+003  1.01785010E+001  -5.56488614E-005      27.86  <-- SCF
      5  -3.08695216E+003  1.01783222E+001   7.75442750E-007      28.11  <-- SCF
      6  -3.08695216E+003  1.01783565E+001   1.35352669E-007      28.37  <-- SCF
------------------------------------------------------------------------ <-- SCF
 
Final energy, E             =  -3086.952161750     eV
Final free energy (E-TS)    =  -3086.952161750     eV
(energies not corrected for finite basis set)
 
NB est. 0K energy (E-0.5TS)      =  -3086.952161750     eV
 

 ************************************** Forces **************************************
 *                                                                                  *
 *                           Cartesian components (eV/A)                            *
 * -------------------------------------------------------------------------------- *
 *                         x                    y                    z              *
 *                                                                                  *
 * O               1      0.00039             -0.00002             -0.00001         *
 * O               2     -0.00019             -0.00036              0.00001         *
 * O               3     -0.00021              0.00036             -0.00000         *
 * O               4      0.00021              0.00041             -0.00001         *
 * O               5      0.00024             -0.00041              0.00000         *
 * O               6     -0.00044              0.00002              0.00001         *
 * Al              1      0.00001             -0.00000              0.00275         *
 * Al              2     -0.00001              0.00001              0.00275         *
 * Al              3     -0.00001              0.00000             -0.00274         *
 * Al              4      0.00001             -0.00001             -0.00275         *
 *                                                                                  *
 ************************************************************************************

 ***************** Stress Tensor *****************
 *                                               *
 *          Cartesian components (GPa)           *
 * --------------------------------------------- *
 *             x             y             z     *
 *                                               *
 *  x     -0.194378      0.000015     -0.000028  *
 *  y      0.000015     -0.194468     -0.000067  *
 *  z     -0.000028     -0.000067     -0.706465  *
 *                                               *
 *  Pressure:    0.3651                          *
 *                                               *
 *************************************************
  
 +------------+-------------+-------------+-----------------+ <-- min LBFGS
 |    Step    |   lambda    |   F.delta'  |    enthalpy     | <-- min LBFGS
 +------------+-------------+-------------+-----------------+ <-- min LBFGS
 |  previous  |    0.000000 |    0.010101 |    -3086.979078 | <-- min LBFGS
 | trial step |    1.000000 |    0.014149 |    -3086.977298 | <-- min LBFGS
 +------------+-------------+-------------+-----------------+ <-- min LBFGS
  

--------------------------------------------------------------------------------
 LBFGS: improving iteration         2 with line minimization (lambda= -2.494895)
--------------------------------------------------------------------------------

                           -------------------------------
                                      Unit Cell
                           -------------------------------
        Real Lattice(A)              Reciprocal Lattice(1/A)
     2.3942786     1.3823367     4.3530445        1.312125777   0.757556423   0.481132839
    -2.3942752     1.3823373     4.3530424       -1.312125981   0.757556050   0.481133983
     0.0000023    -2.7646715     4.3530423       -0.000000425  -1.515112864   0.481133853

                       Lattice parameters(A)       Cell Angles
                    a =      5.156784          alpha =   55.329445
                    b =      5.156781          beta  =   55.329412
                    c =      5.156781          gamma =   55.329426

                Current cell volume =            86.443482 A**3
                            density =             2.359028 amu/A**3
                                    =             3.917257 g/cm^3

                           -------------------------------
                                     Cell Contents
                           -------------------------------

            xxxxxxxxxxxxxxxxxxxxxxxxxxxxxxxxxxxxxxxxxxxxxxxxxxxxxxxxxxxxxxxxx
            x  Element         Atom        Fractional coordinates of atoms  x
            x                 Number           u          v          w      x
            x---------------------------------------------------------------x
            x  O                 1         0.556275   0.943725   0.250000   x
            x  O                 2         0.943725   0.250000   0.556275   x
            x  O                 3         0.250000   0.556275   0.943724   x
            x  O                 4         0.056276   0.750000   0.443724   x
            x  O                 5         0.750000   0.443724   0.056276   x
            x  O                 6         0.443724   0.056276   0.750000   x
            x  Al                1         0.147909   0.147909   0.147909   x
            x  Al                2         0.647909   0.647909   0.647909   x
            x  Al                3         0.852091   0.852091   0.852091   x
            x  Al                4         0.352091   0.352091   0.352091   x
            xxxxxxxxxxxxxxxxxxxxxxxxxxxxxxxxxxxxxxxxxxxxxxxxxxxxxxxxxxxxxxxxx


------------------------------------------------------------------------ <-- SCF
SCF loop      Energy           Fermi           Energy gain       Timer   <-- SCF
                               energy          per atom          (sec)   <-- SCF
------------------------------------------------------------------------ <-- SCF
Initial  -3.08692218E+003  0.00000000E+000                        33.15  <-- SCF
      1  -3.08693737E+003  1.02884284E+001   1.51867225E-003      33.43  <-- SCF
      2  -3.08693744E+003  1.02884181E+001   7.32522579E-006      33.76  <-- SCF
      3  -3.08693472E+003  1.02360310E+001  -2.71840293E-004      34.15  <-- SCF
      4  -3.08693121E+003  1.02586753E+001  -3.50931851E-004      34.51  <-- SCF
      5  -3.08693126E+003  1.02593038E+001   4.71676925E-006      34.82  <-- SCF
      6  -3.08693126E+003  1.02590811E+001   2.16837356E-007      35.08  <-- SCF
------------------------------------------------------------------------ <-- SCF
 
Final energy, E             =  -3086.931262806     eV
Final free energy (E-TS)    =  -3086.931262806     eV
(energies not corrected for finite basis set)
 
NB est. 0K energy (E-0.5TS)      =  -3086.931262806     eV
 

 ************************************** Forces **************************************
 *                                                                                  *
 *                           Cartesian components (eV/A)                            *
 * -------------------------------------------------------------------------------- *
 *                         x                    y                    z              *
 *                                                                                  *
 * O               1     -0.00103              0.00002             -0.00004         *
 * O               2      0.00049              0.00089              0.00005         *
 * O               3      0.00050             -0.00088             -0.00001         *
 * O               4     -0.00056             -0.00102             -0.00006         *
 * O               5     -0.00057              0.00100              0.00002         *
 * O               6      0.00117             -0.00002              0.00004         *
 * Al              1     -0.00002              0.00001              0.00017         *
 * Al              2      0.00000             -0.00002              0.00021         *
 * Al              3      0.00002             -0.00001             -0.00021         *
 * Al              4      0.00000              0.00002             -0.00017         *
 *                                                                                  *
 ************************************************************************************

 ***************** Stress Tensor *****************
 *                                               *
 *          Cartesian components (GPa)           *
 * --------------------------------------------- *
 *             x             y             z     *
 *                                               *
 *  x     -0.851759     -0.000055      0.000211  *
 *  y     -0.000055     -0.851875      0.000118  *
 *  z      0.000211      0.000118     -1.085742  *
 *                                               *
 *  Pressure:    0.9298                          *
 *                                               *
 *************************************************
  
 +------------+-------------+-------------+-----------------+ <-- min LBFGS
 |    Step    |   lambda    |   F.delta'  |    enthalpy     | <-- min LBFGS
 +------------+-------------+-------------+-----------------+ <-- min LBFGS
 |  previous  |    0.000000 |    0.010101 |    -3086.979078 | <-- min LBFGS
 | trial step |    1.000000 |    0.014149 |    -3086.977298 | <-- min LBFGS
 |  line step |   -2.494895 |    0.031677 |    -3086.984075 | <-- min LBFGS
 +------------+-------------+-------------+-----------------+ <-- min LBFGS
  

--------------------------------------------------------------------------------
 LBFGS: improving iteration         2 with quad minimization (lambda=  2.141942)
--------------------------------------------------------------------------------
 
+---------------- MEMORY AND SCRATCH DISK ESTIMATES PER PROCESS --------------+
|                                                     Memory          Disk    |
| Model and support data                               97.3 MB         0.0 MB |
| Electronic energy minimisation requirements          10.6 MB         0.0 MB |
| Geometry minimisation requirements                   11.8 MB         0.0 MB |
|                                               ----------------------------- |
| Approx. total storage required per process          119.7 MB         0.0 MB |
|                                                                             |
| Requirements will fluctuate during execution and may exceed these estimates |
+-----------------------------------------------------------------------------+
 

                           -------------------------------
                                      Unit Cell
                           -------------------------------
        Real Lattice(A)              Reciprocal Lattice(1/A)
     2.3975095     1.3842019     4.3627717        1.310356334   0.756534686   0.480061040
    -2.3975108     1.3842013     4.3627726       -1.310356367   0.756535058   0.480060543
    -0.0000012    -2.7684068     4.3627730        0.000000306  -1.513069463   0.480060175

                       Lattice parameters(A)       Cell Angles
                    a =      5.166996          alpha =   55.291614
                    b =      5.166997          beta  =   55.291636
                    c =      5.166998          gamma =   55.291644

                Current cell volume =            86.870834 A**3
                            density =             2.347423 amu/A**3
                                    =             3.897987 g/cm^3

                           -------------------------------
                                     Cell Contents
                           -------------------------------

            xxxxxxxxxxxxxxxxxxxxxxxxxxxxxxxxxxxxxxxxxxxxxxxxxxxxxxxxxxxxxxxxx
            x  Element         Atom        Fractional coordinates of atoms  x
            x                 Number           u          v          w      x
            x---------------------------------------------------------------x
            x  O                 1         0.556307   0.943693   0.250000   x
            x  O                 2         0.943693   0.250000   0.556307   x
            x  O                 3         0.250000   0.556307   0.943693   x
            x  O                 4         0.056307   0.750000   0.443693   x
            x  O                 5         0.750000   0.443693   0.056307   x
            x  O                 6         0.443693   0.056307   0.750000   x
            x  Al                1         0.147914   0.147914   0.147914   x
            x  Al                2         0.647914   0.647914   0.647914   x
            x  Al                3         0.852086   0.852086   0.852086   x
            x  Al                4         0.352086   0.352086   0.352086   x
            xxxxxxxxxxxxxxxxxxxxxxxxxxxxxxxxxxxxxxxxxxxxxxxxxxxxxxxxxxxxxxxxx


------------------------------------------------------------------------ <-- SCF
SCF loop      Energy           Fermi           Energy gain       Timer   <-- SCF
                               energy          per atom          (sec)   <-- SCF
------------------------------------------------------------------------ <-- SCF
Initial  -3.08681536E+003  0.00000000E+000                        38.57  <-- SCF
      1  -3.08699315E+003  1.01020805E+001   1.77791428E-002      38.80  <-- SCF
      2  -3.08699425E+003  1.01020086E+001   1.10317933E-004      39.19  <-- SCF
      3  -3.08698583E+003  1.01936319E+001  -8.41746038E-004      39.59  <-- SCF
      4  -3.08697482E+003  1.01532446E+001  -1.10140990E-003      39.94  <-- SCF
      5  -3.08697500E+003  1.01524409E+001   1.74690085E-005      40.30  <-- SCF
      6  -3.08697499E+003  1.01529219E+001  -2.53842795E-007      40.56  <-- SCF
      7  -3.08697499E+003  1.01542855E+001  -1.14727293E-007      40.81  <-- SCF
------------------------------------------------------------------------ <-- SCF
 
Final energy, E             =  -3086.974991874     eV
Final free energy (E-TS)    =  -3086.974991874     eV
(energies not corrected for finite basis set)
 
NB est. 0K energy (E-0.5TS)      =  -3086.974991874     eV
 

 ************************************** Forces **************************************
 *                                                                                  *
 *                           Cartesian components (eV/A)                            *
 * -------------------------------------------------------------------------------- *
 *                         x                    y                    z              *
 *                                                                                  *
 * O               1     -0.00636              0.00002              0.00000         *
 * O               2      0.00316              0.00552             -0.00000         *
 * O               3      0.00318             -0.00552              0.00000         *
 * O               4     -0.00317             -0.00553              0.00000         *
 * O               5     -0.00319              0.00553              0.00000         *
 * O               6      0.00637             -0.00001             -0.00001         *
 * Al              1     -0.00000              0.00001              0.00377         *
 * Al              2      0.00001             -0.00001              0.00376         *
 * Al              3      0.00001             -0.00001             -0.00375         *
 * Al              4     -0.00000              0.00000             -0.00377         *
 *                                                                                  *
 ************************************************************************************

 ***************** Stress Tensor *****************
 *                                               *
 *          Cartesian components (GPa)           *
 * --------------------------------------------- *
 *             x             y             z     *
 *                                               *
 *  x     -0.286577      0.000041      0.000011  *
 *  y      0.000041     -0.286647     -0.000045  *
 *  z      0.000011     -0.000045     -0.225282  *
 *                                               *
 *  Pressure:    0.2662                          *
 *                                               *
 *************************************************
  
 +------------+-------------+-------------+-----------------+ <-- min LBFGS
 |    Step    |   lambda    |   F.delta'  |    enthalpy     | <-- min LBFGS
 +------------+-------------+-------------+-----------------+ <-- min LBFGS
 |  previous  |    0.000000 |    0.010101 |    -3086.979078 | <-- min LBFGS
 | trial step |    1.000000 |    0.014149 |    -3086.977298 | <-- min LBFGS
 |  line step |   -2.494895 |    0.031677 |    -3086.984075 | <-- min LBFGS
 |  quad step |    2.141942 |    0.008533 |    -3086.974212 | <-- min LBFGS
 +------------+-------------+-------------+-----------------+ <-- min LBFGS
  
 LBFGS: finished iteration     2 with enthalpy= -3.08697421E+003 eV
  
 +-----------+-----------------+-----------------+------------+-----+ <-- LBFGS
 | Parameter |      value      |    tolerance    |    units   | OK? | <-- LBFGS
 +-----------+-----------------+-----------------+------------+-----+ <-- LBFGS
 |  dE/ion   |   4.866054E-004 |   1.000000E-005 |         eV | No  | <-- LBFGS
 |  |F|max   |   6.381447E-003 |   1.000000E-002 |       eV/A | Yes | <-- LBFGS
 |  |dR|max  |   7.123924E-005 |   1.000000E-003 |          A | Yes | <-- LBFGS
 |   Smax    |   2.866471E-001 |   1.000000E-001 |        GPa | No  | <-- LBFGS
 +-----------+-----------------+-----------------+------------+-----+ <-- LBFGS
  

================================================================================
 Starting LBFGS iteration          3 ...
================================================================================
  
 +------------+-------------+-------------+-----------------+ <-- min LBFGS
 |    Step    |   lambda    |   F.delta'  |    enthalpy     | <-- min LBFGS
 +------------+-------------+-------------+-----------------+ <-- min LBFGS
 |  previous  |    0.000000 |    0.008852 |    -3086.974212 | <-- min LBFGS
 +------------+-------------+-------------+-----------------+ <-- min LBFGS
  

--------------------------------------------------------------------------------
 LBFGS: starting iteration         3 with trial guess (lambda=  1.000000)
--------------------------------------------------------------------------------
 
+---------------- MEMORY AND SCRATCH DISK ESTIMATES PER PROCESS --------------+
|                                                     Memory          Disk    |
| Model and support data                               97.3 MB         0.0 MB |
| Electronic energy minimisation requirements          10.7 MB         0.0 MB |
| Geometry minimisation requirements                   12.0 MB         0.0 MB |
|                                               ----------------------------- |
| Approx. total storage required per process          120.0 MB         0.0 MB |
|                                                                             |
| Requirements will fluctuate during execution and may exceed these estimates |
+-----------------------------------------------------------------------------+
 

                           -------------------------------
                                      Unit Cell
                           -------------------------------
        Real Lattice(A)              Reciprocal Lattice(1/A)
     2.4121870     1.3926768     4.3991329        1.302379732   0.751928814   0.476095647
    -2.4122025     1.3926730     4.3991426       -1.302378994   0.751930842   0.476090434
    -0.0000110    -2.7853683     4.3991433        0.000002126  -1.503857761   0.476089880

                       Lattice parameters(A)       Cell Angles
                    a =      5.206781          alpha =   55.197636
                    b =      5.206795          beta  =   55.197799
                    c =      5.206797          gamma =   55.197779

                Current cell volume =            88.671290 A**3
                            density =             2.299759 amu/A**3
                                    =             3.818839 g/cm^3

                           -------------------------------
                                     Cell Contents
                           -------------------------------

            xxxxxxxxxxxxxxxxxxxxxxxxxxxxxxxxxxxxxxxxxxxxxxxxxxxxxxxxxxxxxxxxx
            x  Element         Atom        Fractional coordinates of atoms  x
            x                 Number           u          v          w      x
            x---------------------------------------------------------------x
            x  O                 1         0.556363   0.943637   0.250000   x
            x  O                 2         0.943637   0.250000   0.556363   x
            x  O                 3         0.250000   0.556363   0.943637   x
            x  O                 4         0.056359   0.750000   0.443642   x
            x  O                 5         0.750000   0.443642   0.056357   x
            x  O                 6         0.443642   0.056358   0.750000   x
            x  Al                1         0.147940   0.147941   0.147940   x
            x  Al                2         0.647940   0.647940   0.647940   x
            x  Al                3         0.852060   0.852059   0.852060   x
            x  Al                4         0.352060   0.352061   0.352059   x
            xxxxxxxxxxxxxxxxxxxxxxxxxxxxxxxxxxxxxxxxxxxxxxxxxxxxxxxxxxxxxxxxx


------------------------------------------------------------------------ <-- SCF
SCF loop      Energy           Fermi           Energy gain       Timer   <-- SCF
                               energy          per atom          (sec)   <-- SCF
------------------------------------------------------------------------ <-- SCF
Initial  -3.08616532E+003  0.00000000E+000                        44.29  <-- SCF
      1  -3.08721519E+003  9.51676745E+000   1.04986504E-001      44.57  <-- SCF
      2  -3.08721894E+003  9.51672028E+000   3.75308092E-004      44.97  <-- SCF
      3  -3.08709334E+003  9.89440677E+000  -1.25596806E-002      45.37  <-- SCF
      4  -3.08689728E+003  9.72338842E+000  -1.96060890E-002      45.73  <-- SCF
      5  -3.08690014E+003  9.72073374E+000   2.86060742E-004      46.12  <-- SCF
      6  -3.08690014E+003  9.72226916E+000  -5.91662888E-007      46.44  <-- SCF
      7  -3.08690009E+003  9.72611762E+000  -4.32983840E-006      46.72  <-- SCF
------------------------------------------------------------------------ <-- SCF
 
Final energy, E             =  -3086.900094550     eV
Final free energy (E-TS)    =  -3086.900094550     eV
(energies not corrected for finite basis set)
 
NB est. 0K energy (E-0.5TS)      =  -3086.900094550     eV
 

 ************************************** Forces **************************************
 *                                                                                  *
 *                           Cartesian components (eV/A)                            *
 * -------------------------------------------------------------------------------- *
 *                         x                    y                    z              *
 *                                                                                  *
 * O               1     -0.01342              0.00029              0.00006         *
 * O               2      0.00640              0.01181             -0.00005         *
 * O               3      0.00659             -0.01151             -0.00001         *
 * O               4     -0.00689             -0.01231              0.00010         *
 * O               5     -0.00687              0.01189             -0.00001         *
 * O               6      0.01415             -0.00017             -0.00009         *
 * Al              1      0.00002              0.00004              0.00144         *
 * Al              2      0.00004             -0.00002              0.00180         *
 * Al              3      0.00001             -0.00004             -0.00179         *
 * Al              4     -0.00002              0.00001             -0.00145         *
 *                                                                                  *
 ************************************************************************************

 ***************** Stress Tensor *****************
 *                                               *
 *          Cartesian components (GPa)           *
 * --------------------------------------------- *
 *             x             y             z     *
 *                                               *
 *  x      4.189913      0.000203     -0.000873  *
 *  y      0.000203      4.190021     -0.000690  *
 *  z     -0.000873     -0.000690      4.833461  *
 *                                               *
 *  Pressure:   -4.4045                          *
 *                                               *
 *************************************************
  
 +------------+-------------+-------------+-----------------+ <-- min LBFGS
 |    Step    |   lambda    |   F.delta'  |    enthalpy     | <-- min LBFGS
 +------------+-------------+-------------+-----------------+ <-- min LBFGS
 |  previous  |    0.000000 |    0.008852 |    -3086.974212 | <-- min LBFGS
 | trial step |    1.000000 |   -0.152828 |    -3086.917313 | <-- min LBFGS
 +------------+-------------+-------------+-----------------+ <-- min LBFGS
  

--------------------------------------------------------------------------------
 LBFGS: improving iteration         3 with line minimization (lambda=  0.054748)
--------------------------------------------------------------------------------

                           -------------------------------
                                      Unit Cell
                           -------------------------------
        Real Lattice(A)              Reciprocal Lattice(1/A)
     2.3983131     1.3846659     4.3647624        1.309917106   0.756281065   0.479842235
    -2.3983151     1.3846651     4.3647638       -1.309917096   0.756281529   0.479841477
    -0.0000018    -2.7693354     4.3647642        0.000000407  -1.512562224   0.479841098

                       Lattice parameters(A)       Cell Angles
                    a =      5.169174          alpha =   55.286432
                    b =      5.169176          beta  =   55.286462
                    c =      5.169176          gamma =   55.286468

                Current cell volume =            86.968775 A**3
                            density =             2.344779 amu/A**3
                                    =             3.893597 g/cm^3

                           -------------------------------
                                     Cell Contents
                           -------------------------------

            xxxxxxxxxxxxxxxxxxxxxxxxxxxxxxxxxxxxxxxxxxxxxxxxxxxxxxxxxxxxxxxxx
            x  Element         Atom        Fractional coordinates of atoms  x
            x                 Number           u          v          w      x
            x---------------------------------------------------------------x
            x  O                 1         0.556311   0.943690   0.250000   x
            x  O                 2         0.943690   0.250000   0.556310   x
            x  O                 3         0.250000   0.556310   0.943690   x
            x  O                 4         0.056310   0.750000   0.443690   x
            x  O                 5         0.750000   0.443691   0.056309   x
            x  O                 6         0.443691   0.056310   0.750000   x
            x  Al                1         0.147916   0.147916   0.147916   x
            x  Al                2         0.647916   0.647916   0.647916   x
            x  Al                3         0.852084   0.852084   0.852084   x
            x  Al                4         0.352084   0.352084   0.352084   x
            xxxxxxxxxxxxxxxxxxxxxxxxxxxxxxxxxxxxxxxxxxxxxxxxxxxxxxxxxxxxxxxxx


------------------------------------------------------------------------ <-- SCF
SCF loop      Energy           Fermi           Energy gain       Timer   <-- SCF
                               energy          per atom          (sec)   <-- SCF
------------------------------------------------------------------------ <-- SCF
Initial  -3.08677816E+003  0.00000000E+000                        50.20  <-- SCF
      1  -3.08721608E+003  1.03027276E+001   4.37918211E-002      50.49  <-- SCF
      2  -3.08721749E+003  1.03026839E+001   1.41186579E-004      50.90  <-- SCF
      3  -3.08713127E+003  9.99702505E+000  -8.62228895E-003      51.29  <-- SCF
      4  -3.08700721E+003  1.01301769E+001  -1.24059274E-002      51.65  <-- SCF
      5  -3.08700893E+003  1.01340313E+001   1.72597032E-004      52.04  <-- SCF
      6  -3.08700890E+003  1.01323362E+001  -3.04124947E-006      52.35  <-- SCF
      7  -3.08700889E+003  1.01282248E+001  -1.41934377E-006      52.64  <-- SCF
------------------------------------------------------------------------ <-- SCF
 
Final energy, E             =  -3087.008887468     eV
Final free energy (E-TS)    =  -3087.008887468     eV
(energies not corrected for finite basis set)
 
NB est. 0K energy (E-0.5TS)      =  -3087.008887468     eV
 

 ************************************** Forces **************************************
 *                                                                                  *
 *                           Cartesian components (eV/A)                            *
 * -------------------------------------------------------------------------------- *
 *                         x                    y                    z              *
 *                                                                                  *
 * O               1     -0.00633              0.00004             -0.00006         *
 * O               2      0.00305              0.00549              0.00006         *
 * O               3      0.00314             -0.00557              0.00000         *
 * O               4     -0.00285             -0.00512             -0.00007         *
 * O               5     -0.00291              0.00517              0.00001         *
 * O               6      0.00591             -0.00003              0.00006         *
 * Al              1      0.00005             -0.00000              0.00359         *
 * Al              2     -0.00001              0.00005              0.00380         *
 * Al              3     -0.00006              0.00001             -0.00380         *
 * Al              4      0.00001             -0.00003             -0.00359         *
 *                                                                                  *
 ************************************************************************************

 ***************** Stress Tensor *****************
 *                                               *
 *          Cartesian components (GPa)           *
 * --------------------------------------------- *
 *             x             y             z     *
 *                                               *
 *  x     -0.951479      0.000036     -0.000428  *
[...]
 *  z      0.097518     -0.157374      0.327134  *
 *                                               *
 *  Pressure:   -0.4734                          *
 *                                               *
 *************************************************
  
 +------------+-------------+-------------+-----------------+ <-- min LBFGS
 |    Step    |   lambda    |   F.delta'  |    enthalpy     | <-- min LBFGS
 +------------+-------------+-------------+-----------------+ <-- min LBFGS
 |  previous  |    0.000000 |    0.001753 |    -3086.953209 | <-- min LBFGS
 | trial step |    1.000000 |   -0.014198 |    -3086.953966 | <-- min LBFGS
 +------------+-------------+-------------+-----------------+ <-- min LBFGS
  

--------------------------------------------------------------------------------
 LBFGS: improving iteration         7 with line minimization (lambda=  0.109877)
--------------------------------------------------------------------------------

                           -------------------------------
                                      Unit Cell
                           -------------------------------
        Real Lattice(A)              Reciprocal Lattice(1/A)
     2.4008171     1.3856737     4.3740968        1.308565575   0.755508317   0.478880736
    -2.4007351     1.3856443     4.3740610       -1.308581974   0.755524378   0.478900166
     0.0000155    -2.7728567     4.3745674        0.000005700  -1.510863976   0.478624719

                       Lattice parameters(A)       Cell Angles
                    a =      5.178488          alpha =   55.237916
                    b =      5.178412          beta  =   55.238112
                    c =      5.179341          gamma =   55.240476

                Current cell volume =            87.341927 A**3
                            density =             2.334761 amu/A**3
                                    =             3.876962 g/cm^3

                           -------------------------------
                                     Cell Contents
                           -------------------------------

            xxxxxxxxxxxxxxxxxxxxxxxxxxxxxxxxxxxxxxxxxxxxxxxxxxxxxxxxxxxxxxxxx
            x  Element         Atom        Fractional coordinates of atoms  x
            x                 Number           u          v          w      x
            x---------------------------------------------------------------x
            x  O                 1         0.556330   0.943670   0.250000   x
            x  O                 2         0.943670   0.250000   0.556330   x
            x  O                 3         0.250000   0.556330   0.943670   x
            x  O                 4         0.056330   0.750000   0.443670   x
            x  O                 5         0.750000   0.443671   0.056329   x
            x  O                 6         0.443670   0.056330   0.750000   x
            x  Al                1         0.147928   0.147928   0.147928   x
            x  Al                2         0.647928   0.647928   0.647928   x
            x  Al                3         0.852072   0.852072   0.852072   x
            x  Al                4         0.352072   0.352072   0.352072   x
            xxxxxxxxxxxxxxxxxxxxxxxxxxxxxxxxxxxxxxxxxxxxxxxxxxxxxxxxxxxxxxxxx


------------------------------------------------------------------------ <-- SCF
SCF loop      Energy           Fermi           Energy gain       Timer   <-- SCF
                               energy          per atom          (sec)   <-- SCF
------------------------------------------------------------------------ <-- SCF
Initial  -3.08702949E+003  0.00000000E+000                       106.49  <-- SCF
      1  -3.08704017E+003  1.00519920E+001   1.06804200E-003     106.75  <-- SCF
      2  -3.08704024E+003  1.00519898E+001   6.44968976E-006     107.10  <-- SCF
      3  -3.08703961E+003  1.00343950E+001  -6.24304535E-005     107.48  <-- SCF
      4  -3.08703924E+003  1.00422329E+001  -3.67901440E-005     107.83  <-- SCF
      5  -3.08703925E+003  1.00420849E+001   2.42937049E-007     108.11  <-- SCF
      6  -3.08703925E+003  1.00418604E+001   1.97502813E-008     108.39  <-- SCF
------------------------------------------------------------------------ <-- SCF
 
Final energy, E             =  -3087.039246327     eV
Final free energy (E-TS)    =  -3087.039246327     eV
(energies not corrected for finite basis set)
 
NB est. 0K energy (E-0.5TS)      =  -3087.039246327     eV
 

 ************************************** Forces **************************************
 *                                                                                  *
 *                           Cartesian components (eV/A)                            *
 * -------------------------------------------------------------------------------- *
 *                         x                    y                    z              *
 *                                                                                  *
 * O               1     -0.00117             -0.00048             -0.00035         *
 * O               2      0.00038              0.00301              0.00128         *
 * O               3     -0.00068             -0.00211             -0.00090         *
 * O               4     -0.00043             -0.00309             -0.00128         *
 * O               5      0.00064              0.00218              0.00091         *
 * O               6      0.00125              0.00049              0.00035         *
 * Al              1      0.00035              0.00111              0.00623         *
 * Al              2     -0.00042              0.00103              0.00622         *
 * Al              3     -0.00035             -0.00111             -0.00622         *
 * Al              4      0.00042             -0.00103             -0.00623         *
 *                                                                                  *
 ************************************************************************************

 ***************** Stress Tensor *****************
 *                                               *
 *          Cartesian components (GPa)           *
 * --------------------------------------------- *
 *             x             y             z     *
 *                                               *
 *  x      0.001318      0.005339      0.009979  *
 *  y      0.005339      0.003266     -0.024127  *
 *  z      0.009979     -0.024127      0.032083  *
 *                                               *
 *  Pressure:   -0.0122                          *
 *                                               *
 *************************************************
  
 +------------+-------------+-------------+-----------------+ <-- min LBFGS
 |    Step    |   lambda    |   F.delta'  |    enthalpy     | <-- min LBFGS
 +------------+-------------+-------------+-----------------+ <-- min LBFGS
 |  previous  |    0.000000 |    0.001753 |    -3086.953209 | <-- min LBFGS
 | trial step |    1.000000 |   -0.014198 |    -3086.953966 | <-- min LBFGS
 |  line step |    0.109877 |   -0.000329 |    -3086.953215 | <-- min LBFGS
 +------------+-------------+-------------+-----------------+ <-- min LBFGS
  
 LBFGS: finished iteration     7 with enthalpy= -3.08695321E+003 eV
  
 +-----------+-----------------+-----------------+------------+-----+ <-- LBFGS
 | Parameter |      value      |    tolerance    |    units   | OK? | <-- LBFGS
 +-----------+-----------------+-----------------+------------+-----+ <-- LBFGS
 |  dE/ion   |   5.380104E-007 |   1.000000E-005 |         eV | Yes | <-- LBFGS
 |  |F|max   |   6.335254E-003 |   1.000000E-002 |       eV/A | Yes | <-- LBFGS
 |  |dR|max  |   5.608776E-005 |   1.000000E-003 |          A | Yes | <-- LBFGS
 |   Smax    |   3.208306E-002 |   1.000000E-001 |        GPa | Yes | <-- LBFGS
 +-----------+-----------------+-----------------+------------+-----+ <-- LBFGS
  
 LBFGS: Geometry optimization completed successfully.

================================================================================
 LBFGS: Final Configuration:
================================================================================

                           -------------------------------
                                      Unit Cell
                           -------------------------------
        Real Lattice(A)              Reciprocal Lattice(1/A)
     2.4008171     1.3856737     4.3740968        1.308565575   0.755508317   0.478880736
    -2.4007351     1.3856443     4.3740610       -1.308581974   0.755524378   0.478900166
     0.0000155    -2.7728567     4.3745674        0.000005700  -1.510863976   0.478624719

                       Lattice parameters(A)       Cell Angles
                    a =      5.178488          alpha =   55.237916
                    b =      5.178412          beta  =   55.238112
                    c =      5.179341          gamma =   55.240476

                Current cell volume =            87.341927 A**3
                            density =             2.334761 amu/A**3
                                    =             3.876962 g/cm^3

                           -------------------------------
                                     Cell Contents
                           -------------------------------

            xxxxxxxxxxxxxxxxxxxxxxxxxxxxxxxxxxxxxxxxxxxxxxxxxxxxxxxxxxxxxxxxx
            x  Element         Atom        Fractional coordinates of atoms  x
            x                 Number           u          v          w      x
            x---------------------------------------------------------------x
            x  O                 1         0.556330   0.943670   0.250000   x
            x  O                 2         0.943670   0.250000   0.556330   x
            x  O                 3         0.250000   0.556330   0.943670   x
            x  O                 4         0.056330   0.750000   0.443670   x
            x  O                 5         0.750000   0.443671   0.056329   x
            x  O                 6         0.443670   0.056330   0.750000   x
            x  Al                1         0.147928   0.147928   0.147928   x
            x  Al                2         0.647928   0.647928   0.647928   x
            x  Al                3         0.852072   0.852072   0.852072   x
            x  Al                4         0.352072   0.352072   0.352072   x
            xxxxxxxxxxxxxxxxxxxxxxxxxxxxxxxxxxxxxxxxxxxxxxxxxxxxxxxxxxxxxxxxx


 LBFGS: Final Enthalpy     = -3.08695321E+003 eV
 LBFGS: Final <frequency>  =    1201.98081 cm-1
 LBFGS: Final bulk modulus =      51.79052 GPa

 ************************************** Forces **************************************
 *                                                                                  *
 *                           Cartesian components (eV/A)                            *
 * -------------------------------------------------------------------------------- *
 *                         x                    y                    z              *
 *                                                                                  *
 * O               1     -0.00117             -0.00048             -0.00035         *
 * O               2      0.00038              0.00301              0.00128         *
 * O               3     -0.00068             -0.00211             -0.00090         *
 * O               4     -0.00043             -0.00309             -0.00128         *
 * O               5      0.00064              0.00218              0.00091         *
 * O               6      0.00125              0.00049              0.00035         *
 * Al              1      0.00035              0.00111              0.00623         *
 * Al              2     -0.00042              0.00103              0.00622         *
 * Al              3     -0.00035             -0.00111             -0.00622         *
 * Al              4      0.00042             -0.00103             -0.00623         *
 *                                                                                  *
 ************************************************************************************

 ***************** Stress Tensor *****************
 *                                               *
 *          Cartesian components (GPa)           *
 * --------------------------------------------- *
 *             x             y             z     *
 *                                               *
 *  x      0.001318      0.005339      0.009979  *
 *  y      0.005339      0.003266     -0.024127  *
 *  z      0.009979     -0.024127      0.032083  *
 *                                               *
 *  Pressure:   -0.0122                          *
 *                                               *
 *************************************************

 Pseudo atomic calculation performed for O 2s2 2p4

 Converged in 21 iterations to a total energy of -430.8269 eV

 Pseudo atomic calculation performed for Al 3s2 3p1

 Converged in 11 iterations to a total energy of -105.9168 eV
Charge spilling parameter for spin component 1 = 0.77%

            Orbital Populations       
     Ion    Atom   Orbital             Charge
  -------------------------------------------
      O     1      S                    1.836
      O     1      Px                   1.718
      O     1      Py                   1.754
      O     1      Pz                   1.739
      O     2      S                    1.836
      O     2      Px                   1.745
      O     2      Py                   1.727
      O     2      Pz                   1.740
      O     3      S                    1.836
      O     3      Px                   1.745
      O     3      Py                   1.727
      O     3      Pz                   1.739
      O     4      S                    1.836
      O     4      Px                   1.745
      O     4      Py                   1.727
      O     4      Pz                   1.739
      O     5      S                    1.836
      O     5      Px                   1.744
      O     5      Py                   1.727
      O     5      Pz                   1.739
      O     6      S                    1.836
      O     6      Px                   1.718
      O     6      Py                   1.753
      O     6      Pz                   1.739
     Al     1      S                    0.525
     Al     1      Px                   0.306
     Al     1      Py                   0.305
     Al     1      Pz                   0.293
     Al     2      S                    0.525
     Al     2      Px                   0.305
     Al     2      Py                   0.305
     Al     2      Pz                   0.293
     Al     3      S                    0.525
     Al     3      Px                   0.305
     Al     3      Py                   0.305
     Al     3      Pz                   0.293
     Al     4      S                    0.525
     Al     4      Px                   0.305
     Al     4      Py                   0.305
     Al     4      Pz                   0.293
  -------------------------------------------
                           Total:      48.000
  -------------------------------------------

     Atomic Populations (Mulliken)
     -----------------------------
Species          Ion     s      p      d      f     Total  Charge (e)
=====================================================================
  O               1     1.84   5.21   0.00   0.00   7.05    -1.05
  O               2     1.84   5.21   0.00   0.00   7.05    -1.05
  O               3     1.84   5.21   0.00   0.00   7.05    -1.05
  O               4     1.84   5.21   0.00   0.00   7.05    -1.05
  O               5     1.84   5.21   0.00   0.00   7.05    -1.05
  O               6     1.84   5.21   0.00   0.00   7.05    -1.05
  Al              1     0.53   0.90   0.00   0.00   1.43     1.57
  Al              2     0.53   0.90   0.00   0.00   1.43     1.57
  Al              3     0.53   0.90   0.00   0.00   1.43     1.57
  Al              4     0.53   0.90   0.00   0.00   1.43     1.57
=====================================================================

                 Bond                   Population      Length (A)
======================================================================
               O 2 -- Al 3                   0.36        1.87193
               O 4 -- Al 1                   0.36        1.87193
               O 3 -- Al 2                   0.36        1.87196
               O 5 -- Al 4                   0.36        1.87196
               O 2 -- Al 2                   0.36        1.87204
               O 4 -- Al 4                   0.36        1.87204
               O 3 -- Al 3                   0.36        1.87206
               O 5 -- Al 1                   0.36        1.87206
               O 1 -- Al 2                   0.36        1.87224
               O 6 -- Al 4                   0.36        1.87224
               O 1 -- Al 3                   0.36        1.87224
               O 6 -- Al 1                   0.36        1.87225
               O 5 -- Al 3                   0.26        1.98920
               O 3 -- Al 1                   0.26        1.98920
               O 4 -- Al 2                   0.26        1.98923
               O 2 -- Al 4                   0.26        1.98923
               O 6 -- Al 2                   0.26        1.98935
               O 1 -- Al 4                   0.26        1.98935
               O 6 -- Al 3                   0.26        1.98938
               O 1 -- Al 1                   0.26        1.98938
               O 4 -- Al 3                   0.26        1.98962
               O 2 -- Al 1                   0.26        1.98962
               O 5 -- Al 2                   0.26        1.98962
               O 3 -- Al 4                   0.26        1.98962
               O 5 -- O 6                   -0.16        2.54762
               O 1 -- O 3                   -0.16        2.54762
               O 4 -- O 6                   -0.16        2.54765
               O 1 -- O 2                   -0.16        2.54765
               O 4 -- O 5                   -0.16        2.54775
               O 2 -- O 3                   -0.16        2.54775
               O 2 -- O 4                   -0.16        2.64504
               O 3 -- O 5                   -0.16        2.64507
               O 1 -- O 6                   -0.16        2.64556
              Al 2 -- Al 3                  -0.49        2.67893
              Al 1 -- Al 4                  -0.49        2.67893
               O 3 -- O 6                   -0.09        2.75103
               O 1 -- O 5                   -0.09        2.75103
               O 2 -- O 6                   -0.09        2.75105
               O 1 -- O 4                   -0.09        2.75105
               O 2 -- O 5                   -0.09        2.75157
               O 3 -- O 4                   -0.09        2.75157
              Al 1 -- Al 3                  -0.66        2.81543
              Al 2 -- Al 4                  -0.66        2.81543
======================================================================


Writing analysis data to al2o3_xc-PBESOL_c-0600_k-2x2x2_geom.castep_bin

Writing model to al2o3_xc-PBESOL_c-0600_k-2x2x2_geom.check
 
 A BibTeX formatted list of references used in this run has been written to 
 al2o3_xc-PBESOL_c-0600_k-2x2x2_geom.bib
 
Initialisation time =      7.00 s
Calculation time    =    105.46 s
Finalisation time   =      0.07 s
Total time          =    112.53 s
Peak Memory Use     = 569888 kB
  
Overall parallel efficiency rating: Very good (84%)                             
  
Data was distributed by:-
G-vector (2-way); efficiency rating: Very good (88%)                            
k-point (4-way); efficiency rating: Excellent (94%)                             
  
Parallel notes:
1) Calculation only took 112.5 s, so efficiency estimates may be inaccurate.    
