 +-------------------------------------------------+
 |                                                 |
 |      CCC   AA    SSS  TTTTT  EEEEE  PPPP        |
 |     C     A  A  S       T    E      P   P       |
 |     C     AAAA   SS     T    EEE    PPPP        |
 |     C     A  A     S    T    E      P           |
 |      CCC  A  A  SSS     T    EEEEE  P           |
 |                                                 |
 +-------------------------------------------------+
 |                                                 |
 | Welcome to Academic Release CASTEP version 19.11|          
 | Ab Initio Total Energy Program                  |
 |                                                 |
 | Authors:                                        |
 | M. Segall, M. Probert, C. Pickard, P. Hasnip,   |
 | S. Clark, K. Refson, J. R. Yates, M. Payne      |
 |                                                 |
 | Contributors:                                   |
 | P. Lindan, P. Haynes, J. White, V. Milman,      |
 | N. Govind, M. Gibson, P. Tulip, V. Cocula,      |
 | B. Montanari, D. Quigley, M. Glover,            |
 | L. Bernasconi, A. Perlov, M. Plummer,           |
 | E. McNellis, J. Meyer, J. Gale, D. Jochym       |
 | J. Aarons, B. Walker, R. Gillen, D. Jones       |
 | T. Green, I. J. Bush, C. J. Armstrong,          |
 | E. J. Higgins, E. L. Brown, M. S. McFly,        |
 | J. Wilkins, B-C. Shih, P. J. P. Byrne           |
 |                                                 |
 | Copyright (c) 2000 - 2018                       |
 |                                                 |
 |     Distributed under the terms of an           |
 |     Agreement between the United Kingdom        |
 |     Car-Parrinello (UKCP) Consortium,           |
 |     Daresbury Laboratory and Accelrys, Inc.     |
 |                                                 |
 | Please cite                                     |
 |                                                 |
 |     "First principles methods using CASTEP"     |
 |                                                 |
 |         Zeitschrift fuer Kristallographie       |
 |           220(5-6) pp. 567-570 (2005)           |
 |                                                 |
 | S. J. Clark, M. D. Segall, C. J. Pickard,       |
 | P. J. Hasnip, M. J. Probert, K. Refson,         |
 | M. C. Payne                                     |
 |                                                 |
 |       in all publications arising from          |
 |              your use of CASTEP                 |
 |                                                 |
 +-------------------------------------------------+
 |                                                 |
 |              http://www.castep.org              |
 |                                                 |
 +-------------------------------------------------+



 Compiled for linux_x86_64_gfortran7.0 on Fri, 31 Jan 2020 20:20:28 +0100
 from code version e1fe0d666396+ Castep191_branch Thu, 24 Oct 2019 13:54:03 +0100
 Compiler: GNU Fortran 7.4.0; Optimisation: fast
 MATHLIBS: default (LAPACK version 3.7.1)
 FFT Lib : default
 Fundamental constants values: CODATA 2014

 Run started: Sat, 06 Nov 2021 01:26:07 +0100

 Atomic calculation performed for O: 1s2 2s2 2p4

 Converged in 57 iterations to an ae energy of -2034.019 eV

   ============================================================                
   | Pseudopotential Report - Date of generation  6-11-2021   |                
   ------------------------------------------------------------                
   | Element: O Ionic charge:  6.00 Level of theory: PBESOL   |                
   | Atomic Solver: Koelling-Harmon                           |                
   |                                                          |                
   |               Reference Electronic Structure             |                
   |         Orbital         Occupation         Energy        |                
   |            2s              2.000           -0.875        |                
   |            2p              4.000           -0.330        |                
   |                                                          |                
   |                 Pseudopotential Definition               |                
   |        Beta     l      e      Rc     scheme   norm       |                
   |          1      0   -0.875   1.100     qc      0         |                
   |          2      0    0.250   1.100     qc      0         |                
   |          3      1   -0.330   1.100     qc      0         |                
   |          4      1    0.250   1.100     qc      0         |                
   |         loc     2    0.000   1.100     pn      0         |                
   |                                                          |                
   | Augmentation charge Rinner = 0.769                       |                
   | Partial core correction Rc = 0.769                       |                
   ------------------------------------------------------------                
   | "2|1.1|17|20|23|20:21(qc=8)"                             |                
   ------------------------------------------------------------                
   |      Author: Chris J. Pickard, Cambridge University      |                
   ============================================================                

 Atomic calculation performed for Al: 1s2 2s2 2p6 3s2 3p1

 Converged in 55 iterations to an ae energy of -6590.489 eV

   ============================================================                
   | Pseudopotential Report - Date of generation  6-11-2021   |                
   ------------------------------------------------------------                
   | Element: Al Ionic charge:  3.00 Level of theory: PBESOL  |                
   | Atomic Solver: Koelling-Harmon                           |                
   |                                                          |                
   |               Reference Electronic Structure             |                
   |         Orbital         Occupation         Energy        |                
   |            3s              2.000           -0.284        |                
   |            3p              1.000           -0.099        |                
   |                                                          |                
   |                 Pseudopotential Definition               |                
   |        Beta     l      e      Rc     scheme   norm       |                
   |          1      0   -0.284   2.192     qc      0         |                
   |          2      0    0.250   2.192     qc      0         |                
   |          3      1   -0.099   2.192     qc      0         |                
   |          4      1    0.250   2.192     qc      0         |                
   |          5      2    0.000   2.000     qc      0         |                
   |          6      2    0.250   2.000     qc      0         |                
   |         loc     3    0.000   2.192     pn      0         |                
   |                                                          |                
   | Augmentation charge Rinner = 1.398                       |                
   | Partial core correction Rc = 1.398                       |                
   ------------------------------------------------------------                
   | "3|2.2|2.2|1.4|4|5|5|30:31:32U2U2"                       |                
   ------------------------------------------------------------                
   |      Author: Chris J. Pickard, Cambridge University      |                
   ============================================================                

 Pseudo atomic calculation performed for O 2s2 2p4

 Converged in 14 iterations to a total energy of -431.1226 eV

 Pseudo atomic calculation performed for Al 3s2 3p1

 Converged in 11 iterations to a total energy of -105.9170 eV
 Calculation parallelised over 9 processes.
 Data is distributed by k-point(9-way)

 ************************************ Title ************************************
 

 ***************************** General Parameters ******************************
  
 output verbosity                               : normal  (1)
 write checkpoint data to                       : al2o3_xc-PBESOL_c-0800_k-5x5x5_geom.check
 type of calculation                            : geometry optimization
 stress calculation                             : off
 density difference calculation                 : off
 electron localisation func (ELF) calculation   : off
 Hirshfeld analysis                             : off
 unlimited duration calculation
 timing information                             : on
 memory usage estimate                          : on
 write extra output files                       : on
 write final potential to formatted file        : off
 write final density to formatted file          : off
 write structure in CIF formatted file          : on
 write structure in CELL formatted file         : on
 write BibTeX reference list                    : on
 write OTFG pseudopotential files               : on
 write electrostatic potential file             : on
 write bands file                               : on
 checkpoint writing                             : both castep_bin and check files
  
 output         length unit                     : A
 output           mass unit                     : amu
 output           time unit                     : ps
 output         charge unit                     : e
 output           spin unit                     : hbar/2
 output         energy unit                     : eV
 output          force unit                     : eV/A
 output       velocity unit                     : A/ps
 output       pressure unit                     : GPa
 output     inv_length unit                     : 1/A
 output      frequency unit                     : cm-1
 output force constant unit                     : eV/A**2
 output         volume unit                     : A**3
 output   IR intensity unit                     : (D/A)**2/amu
 output         dipole unit                     : D
 output         efield unit                     : eV/A/e
 output        entropy unit                     : J/mol/K
  
 wavefunctions paging                           : none
 random number generator seed                   : randomised (12607072)
 data distribution                              : optimal for this architecture
 optimization strategy                          : maximize speed(+++)

 *********************** Exchange-Correlation Parameters ***********************
  
 using functional                               : PBE for solids (2008)
 relativistic treatment                         : Koelling-Harmon
 DFT+D: Semi-empirical dispersion correction    : off

 ************************* Pseudopotential Parameters **************************
  
 pseudopotential representation                 : reciprocal space
 <beta|phi> representation                      : reciprocal space
 spin-orbit coupling                            : off

 **************************** Basis Set Parameters *****************************
  
 plane wave basis set cut-off                   :   800.0000   eV
 size of standard grid                          :     1.7500
 size of   fine   gmax                          :    25.3584   1/A
 finite basis set correction                    : automatic
 number of sample energies                      :          3
           sample  spacing                      :     5.0000   eV

 **************************** Electronic Parameters ****************************
  
 number of  electrons                           :  48.00    
 net charge of system                           :  0.000    
 treating system as non-spin-polarized
 number of bands                                :         29

 ********************* Electronic Minimization Parameters **********************
  
 Method: Treating system as metallic with density mixing treatment of electrons,
         and number of  SD  steps               :          1
         and number of  CG  steps               :          4
  
 total energy / atom convergence tol.           : 0.1000E-04   eV
 eigen-energy convergence tolerance             : 0.1000E-05   eV
 max force / atom convergence tol.              : ignored
 convergence tolerance window                   :          3   cycles
 max. number of SCF cycles                      :         30
 number of fixed-spin iterations                :         10
 smearing scheme                                : Gaussian
 smearing width                                 : 0.2000       eV
 Fermi energy convergence tolerance             : 0.2721E-13   eV
 periodic dipole correction                     : NONE

 ************************** Density Mixing Parameters **************************
  
 density-mixing scheme                          : Broyden
 max. length of mixing history                  :         20
 charge density mixing amplitude                : 0.8000    
 cut-off energy for mixing                      :  800.0       eV

 *********************** Population Analysis Parameters ************************
  
 Population analysis with cutoff                :  3.000       A
 Population analysis output                     : summary and pdos components

 ********************** Geometry Optimization Parameters ***********************
  
 optimization method                            : LBFGS
 max. no. of LBFGS updates                      : unbounded
 variable cell method                           : fixed basis quality
 max. number of steps                           :        150
 estimated bulk modulus                         :  500.0       GPa
 estimated <frequency>                          :  1668.       cm-1
 geom line minimiser                            : on
 with line minimiser tolerance                  :     0.4000
 total energy convergence tolerance             : 0.1000E-04   eV/atom
        max ionic |force| tolerance             : 0.1000E-01   eV/A
 max ionic |displacement| tolerance             : 0.1000E-02   A
   max |stress component| tolerance             : 0.1000       GPa
 convergence tolerance window                   :          2   steps
 backup results every                           :          5   steps
 write geom trajectory file                     : on

 *******************************************************************************
  

                           -------------------------------
                                      Unit Cell
                           -------------------------------
        Real Lattice(A)                      Reciprocal Lattice(1/A)
     2.3801000     1.3741510     4.3310000        1.319941454   0.762068577   0.483582396
    -2.3801000     1.3741510     4.3310000       -1.319941454   0.762068577   0.483582396
     0.0000000    -2.7483030     4.3310000       -0.000000000  -1.524137154   0.483582220

                       Lattice parameters(A)       Cell Angles
                    a =      5.129398          alpha =   55.292535
                    b =      5.129398          beta  =   55.292535
                    c =      5.129399          gamma =   55.292537

                       Current cell volume =            84.990269       A**3
                                   density =             2.399364   AMU/A**3
                                           =             3.984237     g/cm^3

                           -------------------------------
                                     Cell Contents
                           -------------------------------
                         Total number of ions in cell =   10
                      Total number of species in cell =    2
                        Max number of any one species =    6

            xxxxxxxxxxxxxxxxxxxxxxxxxxxxxxxxxxxxxxxxxxxxxxxxxxxxxxxxxxxx
            x  Element    Atom        Fractional coordinates of atoms  x
            x            Number           u          v          w      x
            x----------------------------------------------------------x
            x  O            1         0.556260   0.943740   0.250000   x 
            x  O            2         0.943740   0.250000   0.556260   x 
            x  O            3         0.250000   0.556260   0.943740   x 
            x  O            4         0.056260   0.750000   0.443740   x 
            x  O            5         0.750000   0.443740   0.056260   x 
            x  O            6         0.443740   0.056260   0.750000   x 
            x  Al           1         0.147900   0.147900   0.147900   x 
            x  Al           2         0.647900   0.647900   0.647900   x 
            x  Al           3         0.852100   0.852100   0.852100   x 
            x  Al           4         0.352100   0.352100   0.352100   x 
            xxxxxxxxxxxxxxxxxxxxxxxxxxxxxxxxxxxxxxxxxxxxxxxxxxxxxxxxxxxx


                         No user defined ionic velocities

                           -------------------------------
                                   Details of Species
                           -------------------------------

                               Mass of species in AMU
                                    O   15.9994000
                                    Al   26.9815400

                          Electric Quadrupole Moment (Barn)
                                    O   -0.0255800 Isotope 17
                                    Al    0.1466000 Isotope 27

                          Files used for pseudopotentials:
                                    O 2|1.1|17|20|23|20:21(qc=8)
                                    Al 3|2.2|2.2|1.4|4|5|5|30:31:32U2U2

                           -------------------------------
                              k-Points For BZ Sampling
                           -------------------------------
                       MP grid size for SCF calculation is  5  5  5
                            with an offset of   0.000  0.000  0.000
                       Number of kpoints used =            63

                           -------------------------------
                               Symmetry and Constraints
                           -------------------------------

                      Maximum deviation from symmetry =  0.00000         ANG

                      Number of symmetry operations   =           1
                      Number of ionic constraints     =           3
                      Point group of crystal =     1: C1, 1, 1
                      Space group of crystal =   167: R-3c, -R 3 2"c

             Set iprint > 1 for details on symmetry rotations/translations

                         Centre of mass is constrained
             Set iprint > 1 for details of linear ionic constraints

                         Number of cell constraints= 0
                         Cell constraints are:  1 2 3 4 5 6

                         External pressure/stress (GPa)
                          0.00000   0.00000   0.00000
                                    0.00000   0.00000
                                              0.00000
  
+---------------- MEMORY AND SCRATCH DISK ESTIMATES PER PROCESS --------------+
|                                                     Memory          Disk    |
| Baseline code, static data and system overhead      196.0 MB         0.0 MB |
| BLAS internal memory storage                          0.0 MB         0.0 MB |
| Model and support data                              213.4 MB         0.0 MB |
| Electronic energy minimisation requirements          54.2 MB         0.0 MB |
| Force calculation requirements                       13.2 MB         0.0 MB |
|                                               ----------------------------- |
| Approx. total storage required per process          463.7 MB         0.0 MB |
|                                                                             |
| Requirements will fluctuate during execution and may exceed these estimates |
+-----------------------------------------------------------------------------+
Calculating finite basis set correction with  3 cut-off energies.
Calculating total energy with cut-off of  790.000 eV.
------------------------------------------------------------------------ <-- SCF
SCF loop      Energy           Fermi           Energy gain       Timer   <-- SCF
                               energy          per atom          (sec)   <-- SCF
------------------------------------------------------------------------ <-- SCF
Initial  -2.25044728E+003  0.00000000E+000                         9.68  <-- SCF
      1  -2.83949994E+003  1.17295404E+001   5.89052666E+001      15.07  <-- SCF
      2  -3.09010222E+003  2.87885251E+000   2.50602280E+001      20.03  <-- SCF
      3  -3.09673584E+003  2.98061143E+000   6.63362169E-001      24.70  <-- SCF
      4  -3.09259854E+003  6.99622655E+000  -4.13729824E-001      30.87  <-- SCF
      5  -3.08931677E+003  5.44706570E+000  -3.28177653E-001      36.99  <-- SCF
      6  -3.08931876E+003  5.54862203E+000   1.99560257E-004      43.18  <-- SCF
      7  -3.08932025E+003  5.59999317E+000   1.48490110E-004      48.50  <-- SCF
      8  -3.08932029E+003  5.59555100E+000   4.24070898E-006      53.35  <-- SCF
      9  -3.08932030E+003  5.59374123E+000   1.34034516E-006      57.37  <-- SCF
------------------------------------------------------------------------ <-- SCF
 
Final energy, E             =  -3089.320304610     eV
Final free energy (E-TS)    =  -3089.320304610     eV
(energies not corrected for finite basis set)
 
NB est. 0K energy (E-0.5TS)      =  -3089.320304610     eV
 
Calculating total energy with cut-off of  795.000 eV.
------------------------------------------------------------------------ <-- SCF
SCF loop      Energy           Fermi           Energy gain       Timer   <-- SCF
                               energy          per atom          (sec)   <-- SCF
------------------------------------------------------------------------ <-- SCF
Initial  -3.08932030E+003  0.00000000E+000                        59.12  <-- SCF
      1  -3.08932562E+003  5.59525652E+000   5.31629234E-004      63.31  <-- SCF
      2  -3.08932562E+003  5.59525646E+000   2.62336325E-007      67.14  <-- SCF
      3  -3.08932562E+003  5.59508948E+000   2.19995395E-007      70.92  <-- SCF
      4  -3.08932562E+003  5.59507276E+000   3.53364154E-008      74.64  <-- SCF
------------------------------------------------------------------------ <-- SCF
 
Final energy, E             =  -3089.325624642     eV
Final free energy (E-TS)    =  -3089.325624642     eV
(energies not corrected for finite basis set)
 
NB est. 0K energy (E-0.5TS)      =  -3089.325624642     eV
 
Calculating total energy with cut-off of  800.000 eV.
------------------------------------------------------------------------ <-- SCF
SCF loop      Energy           Fermi           Energy gain       Timer   <-- SCF
                               energy          per atom          (sec)   <-- SCF
------------------------------------------------------------------------ <-- SCF
Initial  -3.08932562E+003  0.00000000E+000                        76.39  <-- SCF
      1  -3.08933064E+003  5.59485348E+000   5.01646980E-004      80.45  <-- SCF
      2  -3.08933064E+003  5.59485341E+000   1.59035698E-007      84.10  <-- SCF
      3  -3.08933064E+003  5.59506406E+000   2.11528393E-007      87.69  <-- SCF
      4  -3.08933065E+003  5.59499340E+000   1.88850467E-008      91.13  <-- SCF
------------------------------------------------------------------------ <-- SCF
 
Final energy, E             =  -3089.330645012     eV
Final free energy (E-TS)    =  -3089.330645012     eV
(energies not corrected for finite basis set)
 
NB est. 0K energy (E-0.5TS)      =  -3089.330645012     eV
 
 For future reference: finite basis dEtot/dlog(Ecut) =      -0.822037eV
 Total energy corrected for finite basis set =   -3089.330572 eV
 
+---------------- MEMORY AND SCRATCH DISK ESTIMATES PER PROCESS --------------+
|                                                     Memory          Disk    |
| Model and support data                              221.2 MB         0.0 MB |
| Electronic energy minimisation requirements          54.2 MB         0.0 MB |
| Geometry minimisation requirements                   69.7 MB         0.0 MB |
|                                               ----------------------------- |
| Approx. total storage required per process          345.1 MB         0.0 MB |
|                                                                             |
| Requirements will fluctuate during execution and may exceed these estimates |
+-----------------------------------------------------------------------------+
 

 ************************************** Forces **************************************
 *                                                                                  *
 *                           Cartesian components (eV/A)                            *
 * -------------------------------------------------------------------------------- *
 *                         x                    y                    z              *
 *                                                                                  *
 * O               1     -0.03758             -0.00000             -0.00001         *
 * O               2      0.01880              0.03252             -0.00000         *
 * O               3      0.01877             -0.03252             -0.00001         *
 * O               4     -0.01881             -0.03254              0.00000         *
 * O               5     -0.01878              0.03253              0.00000         *
 * O               6      0.03759              0.00001              0.00001         *
 * Al              1      0.00001              0.00001              0.02043         *
 * Al              2      0.00000              0.00000              0.02043         *
 * Al              3     -0.00001             -0.00000             -0.02043         *
 * Al              4     -0.00000             -0.00001             -0.02043         *
 *                                                                                  *
 ************************************************************************************

 ***************** Stress Tensor *****************
 *                                               *
 *          Cartesian components (GPa)           *
 * --------------------------------------------- *
 *             x             y             z     *
 *                                               *
 *  x     -1.931647      0.000009     -0.000041  *
 *  y      0.000009     -1.931696     -0.000048  *
 *  z     -0.000041     -0.000048     -1.323034  *
 *                                               *
 *  Pressure:    1.7288                          *
 *                                               *
 *************************************************
 LBFGS: finished iteration     0 with enthalpy= -3.08933057E+003 eV
  
 +-----------+-----------------+-----------------+------------+-----+ <-- LBFGS
 | Parameter |      value      |    tolerance    |    units   | OK? | <-- LBFGS
 +-----------+-----------------+-----------------+------------+-----+ <-- LBFGS
 |  dE/ion   |   0.000000E+000 |   1.000000E-005 |         eV | No  | <-- LBFGS
 |  |F|max   |   3.758904E-002 |   1.000000E-002 |       eV/A | No  | <-- LBFGS
 |  |dR|max  |   0.000000E+000 |   1.000000E-003 |          A | No  | <-- LBFGS
 |   Smax    |   1.931696E+000 |   1.000000E-001 |        GPa | No  | <-- LBFGS
 +-----------+-----------------+-----------------+------------+-----+ <-- LBFGS
  

================================================================================
 Starting LBFGS iteration          1 ...
================================================================================
  
 +------------+-------------+-------------+-----------------+ <-- min LBFGS
 |    Step    |   lambda    |   F.delta'  |    enthalpy     | <-- min LBFGS
 +------------+-------------+-------------+-----------------+ <-- min LBFGS
 |  previous  |    0.000000 |    0.059924 |    -3089.330572 | <-- min LBFGS
 +------------+-------------+-------------+-----------------+ <-- min LBFGS
  

--------------------------------------------------------------------------------
 LBFGS: starting iteration         1 with trial guess (lambda=  1.000000)
--------------------------------------------------------------------------------
 
+---------------- MEMORY AND SCRATCH DISK ESTIMATES PER PROCESS --------------+
|                                                     Memory          Disk    |
| Model and support data                              221.2 MB         0.0 MB |
| Electronic energy minimisation requirements          54.3 MB         0.0 MB |
| Geometry minimisation requirements                   69.8 MB         0.0 MB |
|                                               ----------------------------- |
| Approx. total storage required per process          345.4 MB         0.0 MB |
|                                                                             |
| Requirements will fluctuate during execution and may exceed these estimates |
+-----------------------------------------------------------------------------+
 

                           -------------------------------
                                      Unit Cell
                           -------------------------------
        Real Lattice(A)              Reciprocal Lattice(1/A)
     2.3831651     1.3759208     4.3348201        1.318243857   0.761088442   0.483156181
    -2.3831649     1.3759208     4.3348200       -1.318243874   0.761088426   0.483156253
     0.0000001    -2.7518421     4.3348200       -0.000000023  -1.522176914   0.483156114

                       Lattice parameters(A)       Cell Angles
                    a =      5.134520          alpha =   55.309882
                    b =      5.134520          beta  =   55.309881
                    c =      5.134520          gamma =   55.309882

                Current cell volume =            85.284464 A**3
                            density =             2.391087 amu/A**3
                                    =             3.970493 g/cm^3

                           -------------------------------
                                     Cell Contents
                           -------------------------------

            xxxxxxxxxxxxxxxxxxxxxxxxxxxxxxxxxxxxxxxxxxxxxxxxxxxxxxxxxxxxxxxxx
            x  Element         Atom        Fractional coordinates of atoms  x
            x                 Number           u          v          w      x
            x---------------------------------------------------------------x
            x  O                 1         0.556222   0.943778   0.250000   x
            x  O                 2         0.943778   0.250000   0.556222   x
            x  O                 3         0.250000   0.556222   0.943778   x
            x  O                 4         0.056222   0.750000   0.443778   x
            x  O                 5         0.750000   0.443778   0.056222   x
            x  O                 6         0.443778   0.056222   0.750000   x
            x  Al                1         0.147908   0.147908   0.147908   x
            x  Al                2         0.647908   0.647908   0.647907   x
            x  Al                3         0.852093   0.852093   0.852092   x
            x  Al                4         0.352092   0.352092   0.352092   x
            xxxxxxxxxxxxxxxxxxxxxxxxxxxxxxxxxxxxxxxxxxxxxxxxxxxxxxxxxxxxxxxxx


------------------------------------------------------------------------ <-- SCF
SCF loop      Energy           Fermi           Energy gain       Timer   <-- SCF
                               energy          per atom          (sec)   <-- SCF
------------------------------------------------------------------------ <-- SCF
Initial  -3.08931954E+003  0.00000000E+000                       110.39  <-- SCF
      1  -3.08934176E+003  5.48466528E+000   2.22170120E-003     115.76  <-- SCF
      2  -3.08934186E+003  5.48466522E+000   1.07531334E-005     120.89  <-- SCF
      3  -3.08933790E+003  5.62269996E+000  -3.96359447E-004     126.88  <-- SCF
      4  -3.08933278E+003  5.56192816E+000  -5.11921999E-004     132.81  <-- SCF
      5  -3.08933279E+003  5.56228391E+000   8.31935400E-007     136.43  <-- SCF
      6  -3.08933279E+003  5.56258376E+000   9.83919717E-008     139.82  <-- SCF
------------------------------------------------------------------------ <-- SCF
 
Final energy, E             =  -3089.332791017     eV
Final free energy (E-TS)    =  -3089.332791017     eV
(energies not corrected for finite basis set)
 
NB est. 0K energy (E-0.5TS)      =  -3089.332791017     eV
 

 ************************************** Forces **************************************
 *                                                                                  *
 *                           Cartesian components (eV/A)                            *
 * -------------------------------------------------------------------------------- *
 *                         x                    y                    z              *
 *                                                                                  *
 * O               1     -0.03959              0.00000             -0.00002         *
 * O               2      0.01978              0.03428              0.00002         *
 * O               3      0.01977             -0.03431              0.00001         *
 * O               4     -0.01979             -0.03425             -0.00002         *
 * O               5     -0.01978              0.03429             -0.00001         *
 * O               6      0.03961             -0.00000              0.00002         *
 * Al              1     -0.00000              0.00001              0.01358         *
 * Al              2      0.00000             -0.00001              0.01357         *
 * Al              3      0.00000             -0.00001             -0.01358         *
 * Al              4     -0.00000             -0.00000             -0.01358         *
 *                                                                                  *
 ************************************************************************************

 ***************** Stress Tensor *****************
 *                                               *
 *          Cartesian components (GPa)           *
 * --------------------------------------------- *
 *             x             y             z     *
 *                                               *
 *  x     -1.002742      0.000003     -0.000022  *
 *  y      0.000003     -1.002808     -0.000035  *
 *  z     -0.000022     -0.000035     -0.614926  *
 *                                               *
 *  Pressure:    0.8735                          *
 *                                               *
 *************************************************
  
 +------------+-------------+-------------+-----------------+ <-- min LBFGS
 |    Step    |   lambda    |   F.delta'  |    enthalpy     | <-- min LBFGS
 +------------+-------------+-------------+-----------------+ <-- min LBFGS
 |  previous  |    0.000000 |    0.059924 |    -3089.330572 | <-- min LBFGS
 | trial step |    1.000000 |    0.030981 |    -3089.332874 | <-- min LBFGS
 +------------+-------------+-------------+-----------------+ <-- min LBFGS
  

--------------------------------------------------------------------------------
 LBFGS: improving iteration         1 with line minimization (lambda=  2.070427)
--------------------------------------------------------------------------------
 
+---------------- MEMORY AND SCRATCH DISK ESTIMATES PER PROCESS --------------+
|                                                     Memory          Disk    |
| Model and support data                              221.4 MB         0.0 MB |
| Electronic energy minimisation requirements          54.6 MB         0.0 MB |
| Geometry minimisation requirements                   70.1 MB         0.0 MB |
|                                               ----------------------------- |
| Approx. total storage required per process          346.0 MB         0.0 MB |
|                                                                             |
| Requirements will fluctuate during execution and may exceed these estimates |
+-----------------------------------------------------------------------------+
 

                           -------------------------------
                                      Unit Cell
                           -------------------------------
        Real Lattice(A)              Reciprocal Lattice(1/A)
     2.3864461     1.3778151     4.3389093        1.316431537   0.760042069   0.482700780
    -2.3864456     1.3778152     4.3389091       -1.316431572   0.760042036   0.482700929
     0.0000003    -2.7556305     4.3389089       -0.000000047  -1.520084201   0.482700830

                       Lattice parameters(A)       Cell Angles
                    a =      5.140003          alpha =   55.328413
                    b =      5.140003          beta  =   55.328409
                    c =      5.140003          gamma =   55.328409

                Current cell volume =            85.600119 A**3
                            density =             2.382270 amu/A**3
                                    =             3.955852 g/cm^3

                           -------------------------------
                                     Cell Contents
                           -------------------------------

            xxxxxxxxxxxxxxxxxxxxxxxxxxxxxxxxxxxxxxxxxxxxxxxxxxxxxxxxxxxxxxxxx
            x  Element         Atom        Fractional coordinates of atoms  x
            x                 Number           u          v          w      x
            x---------------------------------------------------------------x
            x  O                 1         0.556182   0.943818   0.250000   x
            x  O                 2         0.943819   0.250000   0.556181   x
            x  O                 3         0.250000   0.556182   0.943818   x
            x  O                 4         0.056182   0.750000   0.443818   x
            x  O                 5         0.750000   0.443818   0.056182   x
            x  O                 6         0.443818   0.056182   0.750000   x
            x  Al                1         0.147916   0.147916   0.147916   x
            x  Al                2         0.647916   0.647916   0.647915   x
            x  Al                3         0.852084   0.852084   0.852084   x
            x  Al                4         0.352084   0.352084   0.352084   x
            xxxxxxxxxxxxxxxxxxxxxxxxxxxxxxxxxxxxxxxxxxxxxxxxxxxxxxxxxxxxxxxxx


------------------------------------------------------------------------ <-- SCF
SCF loop      Energy           Fermi           Energy gain       Timer   <-- SCF
                               energy          per atom          (sec)   <-- SCF
------------------------------------------------------------------------ <-- SCF
Initial  -3.08931829E+003  0.00000000E+000                       158.66  <-- SCF
      1  -3.08934357E+003  5.44478816E+000   2.52734319E-003     164.14  <-- SCF
      2  -3.08934369E+003  5.44478805E+000   1.25930325E-005     169.36  <-- SCF
      3  -3.08933923E+003  5.59174307E+000  -4.46451105E-004     175.41  <-- SCF
      4  -3.08933332E+003  5.52645880E+000  -5.91453997E-004     181.36  <-- SCF
      5  -3.08933333E+003  5.52680541E+000   9.80659590E-007     184.94  <-- SCF
      6  -3.08933333E+003  5.52711265E+000   1.14700533E-007     188.31  <-- SCF
------------------------------------------------------------------------ <-- SCF
 
Final energy, E             =  -3089.333326149     eV
Final free energy (E-TS)    =  -3089.333326149     eV
(energies not corrected for finite basis set)
 
NB est. 0K energy (E-0.5TS)      =  -3089.333326149     eV
 

 ************************************** Forces **************************************
 *                                                                                  *
 *                           Cartesian components (eV/A)                            *
 * -------------------------------------------------------------------------------- *
 *                         x                    y                    z              *
 *                                                                                  *
 * O               1     -0.03973              0.00003             -0.00000         *
 * O               2      0.01986              0.03443              0.00001         *
 * O               3      0.01985             -0.03444             -0.00001         *
 * O               4     -0.01986             -0.03438              0.00000         *
 * O               5     -0.01986              0.03440             -0.00001         *
 * O               6      0.03974             -0.00002             -0.00000         *
 * Al              1     -0.00000              0.00001              0.00623         *
 * Al              2     -0.00000             -0.00001              0.00623         *
 * Al              3      0.00000             -0.00001             -0.00622         *
 * Al              4      0.00000              0.00000             -0.00623         *
 *                                                                                  *
 ************************************************************************************

 ***************** Stress Tensor *****************
 *                                               *
 *          Cartesian components (GPa)           *
 * --------------------------------------------- *
 *             x             y             z     *
 *                                               *
 *  x     -0.009410      0.000024      0.000009  *
 *  y      0.000024     -0.009389      0.000021  *
 *  z      0.000009      0.000021      0.132091  *
 *                                               *
 *  Pressure:   -0.0378                          *
 *                                               *
 *************************************************
  
 +------------+-------------+-------------+-----------------+ <-- min LBFGS
 |    Step    |   lambda    |   F.delta'  |    enthalpy     | <-- min LBFGS
 +------------+-------------+-------------+-----------------+ <-- min LBFGS
 |  previous  |    0.000000 |    0.059924 |    -3089.330572 | <-- min LBFGS
 | trial step |    1.000000 |    0.030981 |    -3089.332874 | <-- min LBFGS
 |  line step |    2.070427 |   -0.000068 |    -3089.333569 | <-- min LBFGS
 +------------+-------------+-------------+-----------------+ <-- min LBFGS
  
 LBFGS: finished iteration     1 with enthalpy= -3.08933357E+003 eV
  
 +-----------+-----------------+-----------------+------------+-----+ <-- LBFGS
 | Parameter |      value      |    tolerance    |    units   | OK? | <-- LBFGS
 +-----------+-----------------+-----------------+------------+-----+ <-- LBFGS
 |  dE/ion   |   2.996290E-004 |   1.000000E-005 |         eV | No  | <-- LBFGS
 |  |F|max   |   3.974848E-002 |   1.000000E-002 |       eV/A | No  | <-- LBFGS
 |  |dR|max  |   3.740880E-004 |   1.000000E-003 |          A | Yes | <-- LBFGS
 |   Smax    |   1.320909E-001 |   1.000000E-001 |        GPa | No  | <-- LBFGS
 +-----------+-----------------+-----------------+------------+-----+ <-- LBFGS
  

================================================================================
 Starting LBFGS iteration          2 ...
================================================================================
  
 +------------+-------------+-------------+-----------------+ <-- min LBFGS
 |    Step    |   lambda    |   F.delta'  |    enthalpy     | <-- min LBFGS
 +------------+-------------+-------------+-----------------+ <-- min LBFGS
 |  previous  |    0.000000 |    0.011793 |    -3089.333569 | <-- min LBFGS
 +------------+-------------+-------------+-----------------+ <-- min LBFGS
  

--------------------------------------------------------------------------------
 LBFGS: starting iteration         2 with trial guess (lambda=  1.000000)
--------------------------------------------------------------------------------

                           -------------------------------
                                      Unit Cell
                           -------------------------------
        Real Lattice(A)              Reciprocal Lattice(1/A)
     2.3865061     1.3778497     4.3385824        1.316398455   0.760022999   0.482737166
    -2.3865057     1.3778498     4.3385822       -1.316398460   0.760022922   0.482737300
     0.0000003    -2.7556998     4.3385821       -0.000000069  -1.520045998   0.482737178

                       Lattice parameters(A)       Cell Angles
                    a =      5.139764          alpha =   55.332714
                    b =      5.139764          beta  =   55.332709
                    c =      5.139764          gamma =   55.332710

                Current cell volume =            85.597973 A**3
                            density =             2.382329 amu/A**3
                                    =             3.955951 g/cm^3

                           -------------------------------
                                     Cell Contents
                           -------------------------------

            xxxxxxxxxxxxxxxxxxxxxxxxxxxxxxxxxxxxxxxxxxxxxxxxxxxxxxxxxxxxxxxxx
            x  Element         Atom        Fractional coordinates of atoms  x
            x                 Number           u          v          w      x
            x---------------------------------------------------------------x
            x  O                 1         0.556141   0.943859   0.250000   x
            x  O                 2         0.943859   0.250000   0.556141   x
            x  O                 3         0.250000   0.556141   0.943859   x
            x  O                 4         0.056141   0.750000   0.443859   x
            x  O                 5         0.750000   0.443859   0.056141   x
            x  O                 6         0.443859   0.056141   0.750000   x
            x  Al                1         0.147918   0.147918   0.147918   x
            x  Al                2         0.647918   0.647918   0.647918   x
            x  Al                3         0.852082   0.852082   0.852082   x
            x  Al                4         0.352082   0.352082   0.352082   x
            xxxxxxxxxxxxxxxxxxxxxxxxxxxxxxxxxxxxxxxxxxxxxxxxxxxxxxxxxxxxxxxxx


------------------------------------------------------------------------ <-- SCF
SCF loop      Energy           Fermi           Energy gain       Timer   <-- SCF
                               energy          per atom          (sec)   <-- SCF
------------------------------------------------------------------------ <-- SCF
Initial  -3.08933305E+003  0.00000000E+000                       207.29  <-- SCF
      1  -3.08933351E+003  5.52622684E+000   4.52884713E-005     211.64  <-- SCF
      2  -3.08933351E+003  5.52622683E+000   8.42249036E-007     215.30  <-- SCF
      3  -3.08933339E+003  5.52643634E+000  -1.20796571E-005     219.08  <-- SCF
      4  -3.08933340E+003  5.52765387E+000   2.95279434E-007     222.39  <-- SCF
      5  -3.08933340E+003  5.52739184E+000   2.86381883E-007     225.60  <-- SCF
------------------------------------------------------------------------ <-- SCF
 
Final energy, E             =  -3089.333399440     eV
Final free energy (E-TS)    =  -3089.333399440     eV
(energies not corrected for finite basis set)
 
NB est. 0K energy (E-0.5TS)      =  -3089.333399440     eV
 

 ************************************** Forces **************************************
 *                                                                                  *
 *                           Cartesian components (eV/A)                            *
 * -------------------------------------------------------------------------------- *
 *                         x                    y                    z              *
 *                                                                                  *
 * O               1     -0.05799              0.00003             -0.00001         *
 * O               2      0.02907              0.05040              0.00002         *
 * O               3      0.02902             -0.05032             -0.00000         *
 * O               4     -0.02906             -0.05033              0.00001         *
 * O               5     -0.02903              0.05023              0.00000         *
 * O               6      0.05800             -0.00003             -0.00001         *
 * Al              1     -0.00001              0.00001              0.00676         *
 * Al              2     -0.00000              0.00000              0.00677         *
 * Al              3      0.00000             -0.00001             -0.00677         *
 * Al              4     -0.00000              0.00001             -0.00677         *
 *                                                                                  *
 ************************************************************************************

 ***************** Stress Tensor *****************
 *                                               *
 *          Cartesian components (GPa)           *
 * --------------------------------------------- *
 *             x             y             z     *
 *                                               *
 *  x     -0.025087     -0.000015     -0.000027  *
 *  y     -0.000015     -0.025050      0.000006  *
 *  z     -0.000027      0.000006      0.064138  *
 *                                               *
 *  Pressure:   -0.0047                          *
 *                                               *
 *************************************************
  
 +------------+-------------+-------------+-----------------+ <-- min LBFGS
 |    Step    |   lambda    |   F.delta'  |    enthalpy     | <-- min LBFGS
 +------------+-------------+-------------+-----------------+ <-- min LBFGS
 |  previous  |    0.000000 |    0.011793 |    -3089.333569 | <-- min LBFGS
 | trial step |    1.000000 |    0.016074 |    -3089.333616 | <-- min LBFGS
 +------------+-------------+-------------+-----------------+ <-- min LBFGS
  

--------------------------------------------------------------------------------
 LBFGS: improving iteration         2 with line minimization (lambda= -2.754457)
--------------------------------------------------------------------------------

                           -------------------------------
                                      Unit Cell
                           -------------------------------
        Real Lattice(A)              Reciprocal Lattice(1/A)
     2.3862810     1.3777200     4.3398098        1.316522670   0.760094604   0.482600585
    -2.3862802     1.3777199     4.3398095       -1.316522788   0.760094688   0.482600776
     0.0000002    -2.7554396     4.3398092        0.000000014  -1.520189440   0.482600739

                       Lattice parameters(A)       Cell Angles
                    a =      5.140661          alpha =   55.316567
                    b =      5.140661          beta  =   55.316567
                    c =      5.140661          gamma =   55.316562

                Current cell volume =            85.606027 A**3
                            density =             2.382105 amu/A**3
                                    =             3.955579 g/cm^3

                           -------------------------------
                                     Cell Contents
                           -------------------------------

            xxxxxxxxxxxxxxxxxxxxxxxxxxxxxxxxxxxxxxxxxxxxxxxxxxxxxxxxxxxxxxxxx
            x  Element         Atom        Fractional coordinates of atoms  x
            x                 Number           u          v          w      x
            x---------------------------------------------------------------x
            x  O                 1         0.556294   0.943706   0.250000   x
            x  O                 2         0.943707   0.250000   0.556293   x
            x  O                 3         0.250000   0.556294   0.943706   x
            x  O                 4         0.056293   0.750000   0.443707   x
            x  O                 5         0.750000   0.443707   0.056293   x
            x  O                 6         0.443707   0.056294   0.750000   x
            x  Al                1         0.147909   0.147909   0.147909   x
            x  Al                2         0.647909   0.647909   0.647909   x
            x  Al                3         0.852091   0.852091   0.852091   x
            x  Al                4         0.352091   0.352091   0.352091   x
            xxxxxxxxxxxxxxxxxxxxxxxxxxxxxxxxxxxxxxxxxxxxxxxxxxxxxxxxxxxxxxxxx


------------------------------------------------------------------------ <-- SCF
SCF loop      Energy           Fermi           Energy gain       Timer   <-- SCF
                               energy          per atom          (sec)   <-- SCF
------------------------------------------------------------------------ <-- SCF
Initial  -3.08932843E+003  0.00000000E+000                       244.54  <-- SCF
      1  -3.08933470E+003  5.53078306E+000   6.26429198E-004     249.13  <-- SCF
      2  -3.08933484E+003  5.53077955E+000   1.45001372E-005     254.55  <-- SCF
      3  -3.08933314E+003  5.52992133E+000  -1.70200844E-004     259.68  <-- SCF
      4  -3.08933313E+003  5.52642811E+000  -1.02615148E-006     263.81  <-- SCF
      5  -3.08933313E+003  5.52635094E+000   3.17887252E-007     267.21  <-- SCF
------------------------------------------------------------------------ <-- SCF
 
Final energy, E             =  -3089.333134575     eV
Final free energy (E-TS)    =  -3089.333134575     eV
(energies not corrected for finite basis set)
 
NB est. 0K energy (E-0.5TS)      =  -3089.333134575     eV
 

 ************************************** Forces **************************************
 *                                                                                  *
 *                           Cartesian components (eV/A)                            *
 * -------------------------------------------------------------------------------- *
 *                         x                    y                    z              *
 *                                                                                  *
 * O               1     -0.02284             -0.00002              0.00001         *
 * O               2      0.01139              0.01966              0.00003         *
 * O               3      0.01143             -0.01973             -0.00003         *
 * O               4     -0.01140             -0.01970             -0.00005         *
 * O               5     -0.01139              0.01976              0.00005         *
 * O               6      0.02277              0.00001             -0.00001         *
 * Al              1      0.00000              0.00001              0.00917         *
 * Al              2      0.00001              0.00000              0.00918         *
 * Al              3      0.00001             -0.00001             -0.00917         *
 * Al              4      0.00001              0.00001             -0.00918         *
 *                                                                                  *
 ************************************************************************************

 ***************** Stress Tensor *****************
 *                                               *
 *          Cartesian components (GPa)           *
 * --------------------------------------------- *
 *             x             y             z     *
 *                                               *
 *  x     -0.049762      0.000034     -0.000044  *
 *  y      0.000034     -0.049751      0.000079  *
 *  z     -0.000044      0.000079      0.151508  *
 *                                               *
 *  Pressure:   -0.0173                          *
 *                                               *
 *************************************************
  
 +------------+-------------+-------------+-----------------+ <-- min LBFGS
 |    Step    |   lambda    |   F.delta'  |    enthalpy     | <-- min LBFGS
 +------------+-------------+-------------+-----------------+ <-- min LBFGS
 |  previous  |    0.000000 |    0.011793 |    -3089.333569 | <-- min LBFGS
 | trial step |    1.000000 |    0.016074 |    -3089.333616 | <-- min LBFGS
 |  line step |   -2.754457 |    0.007871 |    -3089.333415 | <-- min LBFGS
 +------------+-------------+-------------+-----------------+ <-- min LBFGS
  

--------------------------------------------------------------------------------
 LBFGS: improving iteration         2 with quad minimization (lambda= -7.116791)
--------------------------------------------------------------------------------

                           -------------------------------
                                      Unit Cell
                           -------------------------------
        Real Lattice(A)              Reciprocal Lattice(1/A)
     2.3860194     1.3775694     4.3412359        1.316667025   0.760177819   0.482441987
    -2.3860183     1.3775689     4.3412355       -1.316667276   0.760178090   0.482442244
     0.0000001    -2.7551373     4.3412350        0.000000110  -1.520356141   0.482442306

                       Lattice parameters(A)       Cell Angles
                    a =      5.141704          alpha =   55.297813
                    b =      5.141703          beta  =   55.297817
                    c =      5.141702          gamma =   55.297805

                Current cell volume =            85.615376 A**3
                            density =             2.381845 amu/A**3
                                    =             3.955147 g/cm^3

                           -------------------------------
                                     Cell Contents
                           -------------------------------

            xxxxxxxxxxxxxxxxxxxxxxxxxxxxxxxxxxxxxxxxxxxxxxxxxxxxxxxxxxxxxxxxx
            x  Element         Atom        Fractional coordinates of atoms  x
            x                 Number           u          v          w      x
            x---------------------------------------------------------------x
            x  O                 1         0.556471   0.943529   0.250000   x
            x  O                 2         0.943529   0.250000   0.556471   x
            x  O                 3         0.250000   0.556471   0.943529   x
            x  O                 4         0.056471   0.750000   0.443529   x
            x  O                 5         0.750000   0.443529   0.056471   x
            x  O                 6         0.443529   0.056471   0.750000   x
            x  Al                1         0.147898   0.147898   0.147898   x
            x  Al                2         0.647899   0.647899   0.647898   x
            x  Al                3         0.852102   0.852102   0.852101   x
            x  Al                4         0.352102   0.352102   0.352101   x
            xxxxxxxxxxxxxxxxxxxxxxxxxxxxxxxxxxxxxxxxxxxxxxxxxxxxxxxxxxxxxxxxx


------------------------------------------------------------------------ <-- SCF
SCF loop      Energy           Fermi           Energy gain       Timer   <-- SCF
                               energy          per atom          (sec)   <-- SCF
------------------------------------------------------------------------ <-- SCF
Initial  -3.08932665E+003  0.00000000E+000                       286.19  <-- SCF
      1  -3.08933483E+003  5.53094770E+000   8.17694989E-004     290.76  <-- SCF
      2  -3.08933502E+003  5.53094746E+000   1.95859952E-005     296.34  <-- SCF
      3  -3.08933284E+003  5.52966124E+000  -2.18589178E-004     301.49  <-- SCF
      4  -3.08933282E+003  5.52585237E+000  -1.20304025E-006     305.70  <-- SCF
      5  -3.08933283E+003  5.52567227E+000   4.26208521E-007     309.14  <-- SCF
------------------------------------------------------------------------ <-- SCF
 
Final energy, E             =  -3089.332828171     eV
Final free energy (E-TS)    =  -3089.332828171     eV
(energies not corrected for finite basis set)
 
NB est. 0K energy (E-0.5TS)      =  -3089.332828171     eV
 

 ************************************** Forces **************************************
 *                                                                                  *
 *                           Cartesian components (eV/A)                            *
 * -------------------------------------------------------------------------------- *
 *                         x                    y                    z              *
 *                                                                                  *
 * O               1     -0.03724             -0.00000             -0.00001         *
 * O               2      0.01858              0.03221              0.00001         *
 * O               3      0.01862             -0.03223             -0.00004         *
 * O               4     -0.01859             -0.03221              0.00000         *
 * O               5     -0.01857              0.03221              0.00004         *
 * O               6      0.03719             -0.00001             -0.00000         *
 * Al              1     -0.00000              0.00002              0.01726         *
 * Al              2      0.00001              0.00000              0.01726         *
 * Al              3      0.00001             -0.00001             -0.01727         *
 * Al              4      0.00000              0.00002             -0.01727         *
 *                                                                                  *
 ************************************************************************************

 ***************** Stress Tensor *****************
 *                                               *
 *          Cartesian components (GPa)           *
 * --------------------------------------------- *
 *             x             y             z     *
 *                                               *
 *  x     -0.083263      0.000057     -0.000047  *
 *  y      0.000057     -0.083197      0.000029  *
 *  z     -0.000047      0.000029      0.270207  *
 *                                               *
 *  Pressure:   -0.0346                          *
 *                                               *
 *************************************************
  
 +------------+-------------+-------------+-----------------+ <-- min LBFGS
 |    Step    |   lambda    |   F.delta'  |    enthalpy     | <-- min LBFGS
 +------------+-------------+-------------+-----------------+ <-- min LBFGS
 |  previous  |    0.000000 |    0.011793 |    -3089.333569 | <-- min LBFGS
 | trial step |    1.000000 |    0.016074 |    -3089.333616 | <-- min LBFGS
 |  line step |   -2.754457 |    0.007871 |    -3089.333415 | <-- min LBFGS
 |  quad step |   -7.116791 |    0.013132 |    -3089.333043 | <-- min LBFGS
 +------------+-------------+-------------+-----------------+ <-- min LBFGS
  
 LBFGS: reverting to earlier configuration

                           -------------------------------
                                      Unit Cell
                           -------------------------------
        Real Lattice(A)              Reciprocal Lattice(1/A)
     2.3862810     1.3777200     4.3398098        1.316522670   0.760094604   0.482600585
    -2.3862802     1.3777199     4.3398095       -1.316522788   0.760094688   0.482600776
     0.0000002    -2.7554396     4.3398092        0.000000014  -1.520189440   0.482600739

                       Lattice parameters(A)       Cell Angles
                    a =      5.140661          alpha =   55.316567
                    b =      5.140661          beta  =   55.316567
                    c =      5.140661          gamma =   55.316562

                Current cell volume =            85.606027 A**3
                            density =             2.382105 amu/A**3
                                    =             3.955579 g/cm^3

                           -------------------------------
                                     Cell Contents
                           -------------------------------

            xxxxxxxxxxxxxxxxxxxxxxxxxxxxxxxxxxxxxxxxxxxxxxxxxxxxxxxxxxxxxxxxx
            x  Element         Atom        Fractional coordinates of atoms  x
            x                 Number           u          v          w      x
            x---------------------------------------------------------------x
            x  O                 1         0.556294   0.943706   0.250000   x
            x  O                 2         0.943707   0.250000   0.556293   x
            x  O                 3         0.250000   0.556294   0.943706   x
            x  O                 4         0.056293   0.750000   0.443707   x
            x  O                 5         0.750000   0.443707   0.056293   x
            x  O                 6         0.443707   0.056294   0.750000   x
            x  Al                1         0.147909   0.147909   0.147909   x
            x  Al                2         0.647909   0.647909   0.647909   x
            x  Al                3         0.852091   0.852091   0.852091   x
            x  Al                4         0.352091   0.352091   0.352091   x
            xxxxxxxxxxxxxxxxxxxxxxxxxxxxxxxxxxxxxxxxxxxxxxxxxxxxxxxxxxxxxxxxx


 LBFGS: updated estimated <frequency>  =1800.85186 cm-1
 LBFGS: updated estimated bulk modulus = 249.47333 GPa
 LBFGS: finished iteration     2 with enthalpy= -3.08933341E+003 eV
  
 +-----------+-----------------+-----------------+------------+-----+ <-- LBFGS
 | Parameter |      value      |    tolerance    |    units   | OK? | <-- LBFGS
 +-----------+-----------------+-----------------+------------+-----+ <-- LBFGS
 |  dE/ion   |   1.536846E-005 |   1.000000E-005 |         eV | No  | <-- LBFGS
 |  |F|max   |   2.284082E-002 |   1.000000E-002 |       eV/A | No  | <-- LBFGS
 |  |dR|max  |   5.343427E-004 |   1.000000E-003 |          A | Yes | <-- LBFGS
 |   Smax    |   1.515076E-001 |   1.000000E-001 |        GPa | No  | <-- LBFGS
 +-----------+-----------------+-----------------+------------+-----+ <-- LBFGS
  

================================================================================
 Starting LBFGS iteration          3 ...
================================================================================
  
 +------------+-------------+-------------+-----------------+ <-- min LBFGS
 |    Step    |   lambda    |   F.delta'  |    enthalpy     | <-- min LBFGS
 +------------+-------------+-------------+-----------------+ <-- min LBFGS
 |  previous  |    0.000000 |    0.005365 |    -3089.333415 | <-- min LBFGS
 +------------+-------------+-------------+-----------------+ <-- min LBFGS
  

--------------------------------------------------------------------------------
 LBFGS: starting iteration         3 with trial guess (lambda=  1.000000)
--------------------------------------------------------------------------------

                           -------------------------------
                                      Unit Cell
                           -------------------------------
        Real Lattice(A)              Reciprocal Lattice(1/A)
     2.3864390     1.3778106     4.3389348        1.316435599   0.760044451   0.482697908
    -2.3864379     1.3778106     4.3389342       -1.316435706   0.760044418   0.482698252
     0.0000006    -2.7556223     4.3389345       -0.000000082  -1.520088865   0.482697898

                       Lattice parameters(A)       Cell Angles
                    a =      5.140020          alpha =   55.328031
                    b =      5.140019          beta  =   55.328023
                    c =      5.140020          gamma =   55.328026

                Current cell volume =            85.600090 A**3
                            density =             2.382270 amu/A**3
                                    =             3.955853 g/cm^3

                           -------------------------------
                                     Cell Contents
                           -------------------------------

            xxxxxxxxxxxxxxxxxxxxxxxxxxxxxxxxxxxxxxxxxxxxxxxxxxxxxxxxxxxxxxxxx
            x  Element         Atom        Fractional coordinates of atoms  x
            x                 Number           u          v          w      x
            x---------------------------------------------------------------x
            x  O                 1         0.556274   0.943726   0.250000   x
            x  O                 2         0.943726   0.250000   0.556274   x
            x  O                 3         0.250000   0.556274   0.943726   x
            x  O                 4         0.056274   0.750000   0.443726   x
            x  O                 5         0.750000   0.443726   0.056274   x
            x  O                 6         0.443726   0.056274   0.750000   x
            x  Al                1         0.147912   0.147912   0.147912   x
            x  Al                2         0.647912   0.647912   0.647912   x
            x  Al                3         0.852088   0.852088   0.852088   x
            x  Al                4         0.352088   0.352088   0.352088   x
            xxxxxxxxxxxxxxxxxxxxxxxxxxxxxxxxxxxxxxxxxxxxxxxxxxxxxxxxxxxxxxxxx


------------------------------------------------------------------------ <-- SCF
SCF loop      Energy           Fermi           Energy gain       Timer   <-- SCF
                               energy          per atom          (sec)   <-- SCF
------------------------------------------------------------------------ <-- SCF
Initial  -3.08933297E+003  0.00000000E+000                       329.08  <-- SCF
      1  -3.08933326E+003  5.52849227E+000   2.92533824E-005     334.22  <-- SCF
      2  -3.08933327E+003  5.52849227E+000   3.18395642E-007     337.49  <-- SCF
      3  -3.08933321E+003  5.52713584E+000  -5.35579066E-006     340.77  <-- SCF
      4  -3.08933321E+003  5.52886469E+000   3.01957421E-008     344.02  <-- SCF
------------------------------------------------------------------------ <-- SCF
 
Final energy, E             =  -3089.333212243     eV
Final free energy (E-TS)    =  -3089.333212243     eV
(energies not corrected for finite basis set)
 
NB est. 0K energy (E-0.5TS)      =  -3089.333212243     eV
 

 ************************************** Forces **************************************
 *                                                                                  *
 *                           Cartesian components (eV/A)                            *
 * -------------------------------------------------------------------------------- *
 *                         x                    y                    z              *
 *                                                                                  *
 * O               1     -0.07254              0.00001              0.00000         *
 * O               2      0.03624              0.06276              0.00003         *
 * O               3      0.03627             -0.06281             -0.00002         *
 * O               4     -0.03626             -0.06279             -0.00005         *
 * O               5     -0.03625              0.06283              0.00002         *
 * O               6      0.07255             -0.00000              0.00001         *
 * Al              1     -0.00001              0.00001              0.01014         *
 * Al              2     -0.00000             -0.00001              0.01014         *
 * Al              3      0.00000             -0.00001             -0.01013         *
 * Al              4      0.00000              0.00001             -0.01014         *
 *                                                                                  *
 ************************************************************************************

 ***************** Stress Tensor *****************
 *                                               *
 *          Cartesian components (GPa)           *
 * --------------------------------------------- *
 *             x             y             z     *
 *                                               *
 *  x      0.038216      0.000006      0.000006  *
 *  y      0.000006      0.038184      0.000009  *
 *  z      0.000006      0.000009      0.208204  *
 *                                               *
 *  Pressure:   -0.0949                          *
 *                                               *
 *************************************************
  
 +------------+-------------+-------------+-----------------+ <-- min LBFGS
 |    Step    |   lambda    |   F.delta'  |    enthalpy     | <-- min LBFGS
 +------------+-------------+-------------+-----------------+ <-- min LBFGS
 |  previous  |    0.000000 |    0.005365 |    -3089.333415 | <-- min LBFGS
 | trial step |    1.000000 |    0.009780 |    -3089.333454 | <-- min LBFGS
 +------------+-------------+-------------+-----------------+ <-- min LBFGS
  

--------------------------------------------------------------------------------
 LBFGS: improving iteration         3 with line minimization (lambda= -1.215312)
--------------------------------------------------------------------------------

                           -------------------------------
                                      Unit Cell
                           -------------------------------
        Real Lattice(A)              Reciprocal Lattice(1/A)
     2.3860889     1.3776100     4.3408732        1.316628502   0.760155563   0.482482360
    -2.3860887     1.3776096     4.3408732       -1.316628636   0.760155791   0.482482365
    -0.0000002    -2.7552176     4.3408722        0.000000130  -1.520311688   0.482482713

                       Lattice parameters(A)       Cell Angles
                    a =      5.141440          alpha =   55.302640
                    b =      5.141440          beta  =   55.302647
                    c =      5.141439          gamma =   55.302632

                Current cell volume =            85.613239 A**3
                            density =             2.381905 amu/A**3
                                    =             3.955245 g/cm^3

                           -------------------------------
                                     Cell Contents
                           -------------------------------

            xxxxxxxxxxxxxxxxxxxxxxxxxxxxxxxxxxxxxxxxxxxxxxxxxxxxxxxxxxxxxxxxx
            x  Element         Atom        Fractional coordinates of atoms  x
            x                 Number           u          v          w      x
            x---------------------------------------------------------------x
            x  O                 1         0.556317   0.943682   0.250000   x
            x  O                 2         0.943683   0.250000   0.556317   x
            x  O                 3         0.250000   0.556318   0.943682   x
            x  O                 4         0.056317   0.750000   0.443683   x
            x  O                 5         0.750000   0.443683   0.056317   x
            x  O                 6         0.443683   0.056318   0.750000   x
            x  Al                1         0.147905   0.147905   0.147905   x
            x  Al                2         0.647906   0.647906   0.647905   x
            x  Al                3         0.852095   0.852095   0.852094   x
            x  Al                4         0.352095   0.352095   0.352094   x
            xxxxxxxxxxxxxxxxxxxxxxxxxxxxxxxxxxxxxxxxxxxxxxxxxxxxxxxxxxxxxxxxx


------------------------------------------------------------------------ <-- SCF
SCF loop      Energy           Fermi           Energy gain       Timer   <-- SCF
                               energy          per atom          (sec)   <-- SCF
------------------------------------------------------------------------ <-- SCF
Initial  -3.08933210E+003  0.00000000E+000                       363.15  <-- SCF
      1  -3.08933334E+003  5.52515894E+000   1.23665947E-004     368.36  <-- SCF
      2  -3.08933334E+003  5.52515888E+000   7.59661102E-007     371.63  <-- SCF
      3  -3.08933312E+003  5.52885570E+000  -2.24080886E-005     376.49  <-- SCF
      4  -3.08933311E+003  5.52484084E+000  -1.08391138E-006     379.78  <-- SCF
      5  -3.08933311E+003  5.52487731E+000   7.52344253E-008     383.08  <-- SCF
------------------------------------------------------------------------ <-- SCF
 
Final energy, E             =  -3089.333109421     eV
Final free energy (E-TS)    =  -3089.333109421     eV
(energies not corrected for finite basis set)
 
NB est. 0K energy (E-0.5TS)      =  -3089.333109421     eV
 

 ************************************** Forces **************************************
 *                                                                                  *
 *                           Cartesian components (eV/A)                            *
 * -------------------------------------------------------------------------------- *
 *                         x                    y                    z              *
 *                                                                                  *
 * O               1     -0.04190              0.00002             -0.00001         *
 * O               2      0.02096              0.03634             -0.00001         *
 * O               3      0.02094             -0.03633              0.00001         *
 * O               4     -0.02095             -0.03630              0.00000         *
 * O               5     -0.02096              0.03630             -0.00001         *
 * O               6      0.04192             -0.00002              0.00001         *
 * Al              1     -0.00000              0.00001              0.01444         *
 * Al              2      0.00001             -0.00001              0.01444         *
 * Al              3      0.00001             -0.00001             -0.01444         *
 * Al              4     -0.00000              0.00001             -0.01444         *
 *                                                                                  *
 ************************************************************************************

 ***************** Stress Tensor *****************
 *                                               *
 *          Cartesian components (GPa)           *
 * --------------------------------------------- *
 *             x             y             z     *
 *                                               *
 *  x     -0.000904      0.000030     -0.000006  *
 *  y      0.000030     -0.000898      0.000043  *
 *  z     -0.000006      0.000043      0.324525  *
 *                                               *
 *  Pressure:   -0.1076                          *
 *                                               *
 *************************************************
  
 +------------+-------------+-------------+-----------------+ <-- min LBFGS
 |    Step    |   lambda    |   F.delta'  |    enthalpy     | <-- min LBFGS
 +------------+-------------+-------------+-----------------+ <-- min LBFGS
 |  previous  |    0.000000 |    0.005365 |    -3089.333415 | <-- min LBFGS
 | trial step |    1.000000 |    0.009780 |    -3089.333454 | <-- min LBFGS
 |  line step |   -1.215312 |    0.009579 |    -3089.333334 | <-- min LBFGS
 +------------+-------------+-------------+-----------------+ <-- min LBFGS
  

--------------------------------------------------------------------------------
 LBFGS: improving iteration         3 with quad minimization (lambda=  4.457666)
[...]
 |  dE/ion   |   3.178597E-007 |   1.000000E-005 |         eV | Yes | <-- LBFGS
 |  |F|max   |   1.076298E-002 |   1.000000E-002 |       eV/A | No  | <-- LBFGS
 |  |dR|max  |   1.558553E-004 |   1.000000E-003 |          A | Yes | <-- LBFGS
 |   Smax    |   9.657749E-002 |   1.000000E-001 |        GPa | Yes | <-- LBFGS
 +-----------+-----------------+-----------------+------------+-----+ <-- LBFGS
  

================================================================================
 Starting LBFGS iteration         10 ...
================================================================================

Writing analysis data to al2o3_xc-PBESOL_c-0800_k-5x5x5_geom.castep_bin

Writing model to al2o3_xc-PBESOL_c-0800_k-5x5x5_geom.check
  
 +------------+-------------+-------------+-----------------+ <-- min LBFGS
 |    Step    |   lambda    |   F.delta'  |    enthalpy     | <-- min LBFGS
 +------------+-------------+-------------+-----------------+ <-- min LBFGS
 |  previous  |    0.000000 |    0.002386 |    -3089.333776 | <-- min LBFGS
 +------------+-------------+-------------+-----------------+ <-- min LBFGS
  

--------------------------------------------------------------------------------
 LBFGS: starting iteration        10 with trial guess (lambda=  1.000000)
--------------------------------------------------------------------------------

                           -------------------------------
                                      Unit Cell
                           -------------------------------
        Real Lattice(A)              Reciprocal Lattice(1/A)
     2.3864945     1.3778445     4.3373714        1.316404337   0.760026159   0.482872125
    -2.3864959     1.3778438     4.3373724       -1.316404357   0.760026545   0.482871569
    -0.0000013    -2.7556864     4.3373709        0.000000324  -1.520053030   0.482872184

                       Lattice parameters(A)       Cell Angles
                    a =      5.138735          alpha =   55.344455
                    b =      5.138737          beta  =   55.344478
                    c =      5.138735          gamma =   55.344462

                Current cell volume =            85.573313 A**3
                            density =             2.383016 amu/A**3
                                    =             3.957091 g/cm^3

                           -------------------------------
                                     Cell Contents
                           -------------------------------

            xxxxxxxxxxxxxxxxxxxxxxxxxxxxxxxxxxxxxxxxxxxxxxxxxxxxxxxxxxxxxxxxx
            x  Element         Atom        Fractional coordinates of atoms  x
            x                 Number           u          v          w      x
            x---------------------------------------------------------------x
            x  O                 1         0.555861   0.944139   0.250000   x
            x  O                 2         0.944139   0.250000   0.555861   x
            x  O                 3         0.250000   0.555861   0.944139   x
            x  O                 4         0.055861   0.750001   0.444139   x
            x  O                 5         0.750000   0.444139   0.055861   x
            x  O                 6         0.444139   0.055861   0.750000   x
            x  Al                1         0.147942   0.147942   0.147941   x
            x  Al                2         0.647942   0.647942   0.647942   x
            x  Al                3         0.852058   0.852058   0.852058   x
            x  Al                4         0.352058   0.352058   0.352058   x
            xxxxxxxxxxxxxxxxxxxxxxxxxxxxxxxxxxxxxxxxxxxxxxxxxxxxxxxxxxxxxxxxx


------------------------------------------------------------------------ <-- SCF
SCF loop      Energy           Fermi           Energy gain       Timer   <-- SCF
                               energy          per atom          (sec)   <-- SCF
------------------------------------------------------------------------ <-- SCF
Initial  -3.08933337E+003  0.00000000E+000                      1053.44  <-- SCF
      1  -3.08933345E+003  5.52598444E+000   7.94823605E-006    1056.74  <-- SCF
      2  -3.08933345E+003  5.52598408E+000   7.34422739E-007    1059.87  <-- SCF
      3  -3.08933345E+003  5.52845702E+000  -9.12041474E-007    1063.01  <-- SCF
      4  -3.08933345E+003  5.52786996E+000   3.11296928E-008    1066.14  <-- SCF
------------------------------------------------------------------------ <-- SCF
 
Final energy, E             =  -3089.333445778     eV
Final free energy (E-TS)    =  -3089.333445778     eV
(energies not corrected for finite basis set)
 
NB est. 0K energy (E-0.5TS)      =  -3089.333445778     eV
 

 ************************************** Forces **************************************
 *                                                                                  *
 *                           Cartesian components (eV/A)                            *
 * -------------------------------------------------------------------------------- *
 *                         x                    y                    z              *
 *                                                                                  *
 * O               1     -0.00113             -0.00001              0.00000         *
 * O               2      0.00056              0.00100              0.00005         *
 * O               3      0.00058             -0.00100             -0.00001         *
 * O               4     -0.00050             -0.00101             -0.00002         *
 * O               5     -0.00058              0.00105             -0.00000         *
 * O               6      0.00111              0.00001             -0.00002         *
 * Al              1     -0.00001             -0.00001             -0.00842         *
 * Al              2     -0.00001             -0.00000             -0.00843         *
 * Al              3     -0.00002              0.00001              0.00842         *
 * Al              4     -0.00002             -0.00003              0.00843         *
 *                                                                                  *
 ************************************************************************************

 ***************** Stress Tensor *****************
 *                                               *
 *          Cartesian components (GPa)           *
 * --------------------------------------------- *
 *             x             y             z     *
 *                                               *
 *  x     -0.057845      0.000014     -0.000045  *
 *  y      0.000014     -0.057870      0.000025  *
 *  z     -0.000045      0.000025     -0.023507  *
 *                                               *
 *  Pressure:    0.0464                          *
 *                                               *
 *************************************************
  
 +------------+-------------+-------------+-----------------+ <-- min LBFGS
 |    Step    |   lambda    |   F.delta'  |    enthalpy     | <-- min LBFGS
 +------------+-------------+-------------+-----------------+ <-- min LBFGS
 |  previous  |    0.000000 |    0.002386 |    -3089.333776 | <-- min LBFGS
 | trial step |    1.000000 |    0.000491 |    -3089.333774 | <-- min LBFGS
 +------------+-------------+-------------+-----------------+ <-- min LBFGS
  
 LBFGS: finished iteration    10 with enthalpy= -3.08933377E+003 eV
  
 +-----------+-----------------+-----------------+------------+-----+ <-- LBFGS
 | Parameter |      value      |    tolerance    |    units   | OK? | <-- LBFGS
 +-----------+-----------------+-----------------+------------+-----+ <-- LBFGS
 |  dE/ion   |   1.867921E-007 |   1.000000E-005 |         eV | Yes | <-- LBFGS
 |  |F|max   |   8.425560E-003 |   1.000000E-002 |       eV/A | Yes | <-- LBFGS
 |  |dR|max  |   5.488138E-005 |   1.000000E-003 |          A | Yes | <-- LBFGS
 |   Smax    |   5.786996E-002 |   1.000000E-001 |        GPa | Yes | <-- LBFGS
 +-----------+-----------------+-----------------+------------+-----+ <-- LBFGS
  
 LBFGS: Geometry optimization completed successfully.

================================================================================
 LBFGS: Final Configuration:
================================================================================

                           -------------------------------
                                      Unit Cell
                           -------------------------------
        Real Lattice(A)              Reciprocal Lattice(1/A)
     2.3864945     1.3778445     4.3373714        1.316404337   0.760026159   0.482872125
    -2.3864959     1.3778438     4.3373724       -1.316404357   0.760026545   0.482871569
    -0.0000013    -2.7556864     4.3373709        0.000000324  -1.520053030   0.482872184

                       Lattice parameters(A)       Cell Angles
                    a =      5.138735          alpha =   55.344455
                    b =      5.138737          beta  =   55.344478
                    c =      5.138735          gamma =   55.344462

                Current cell volume =            85.573313 A**3
                            density =             2.383016 amu/A**3
                                    =             3.957091 g/cm^3

                           -------------------------------
                                     Cell Contents
                           -------------------------------

            xxxxxxxxxxxxxxxxxxxxxxxxxxxxxxxxxxxxxxxxxxxxxxxxxxxxxxxxxxxxxxxxx
            x  Element         Atom        Fractional coordinates of atoms  x
            x                 Number           u          v          w      x
            x---------------------------------------------------------------x
            x  O                 1         0.555861   0.944139   0.250000   x
            x  O                 2         0.944139   0.250000   0.555861   x
            x  O                 3         0.250000   0.555861   0.944139   x
            x  O                 4         0.055861   0.750001   0.444139   x
            x  O                 5         0.750000   0.444139   0.055861   x
            x  O                 6         0.444139   0.055861   0.750000   x
            x  Al                1         0.147942   0.147942   0.147941   x
            x  Al                2         0.647942   0.647942   0.647942   x
            x  Al                3         0.852058   0.852058   0.852058   x
            x  Al                4         0.352058   0.352058   0.352058   x
            xxxxxxxxxxxxxxxxxxxxxxxxxxxxxxxxxxxxxxxxxxxxxxxxxxxxxxxxxxxxxxxxx


 LBFGS: Final Enthalpy     = -3.08933377E+003 eV
 LBFGS: Final <frequency>  =    1538.70148 cm-1
 LBFGS: Final bulk modulus =     789.79189 GPa

 ************************************** Forces **************************************
 *                                                                                  *
 *                           Cartesian components (eV/A)                            *
 * -------------------------------------------------------------------------------- *
 *                         x                    y                    z              *
 *                                                                                  *
 * O               1     -0.00113             -0.00001              0.00000         *
 * O               2      0.00056              0.00100              0.00005         *
 * O               3      0.00058             -0.00100             -0.00001         *
 * O               4     -0.00050             -0.00101             -0.00002         *
 * O               5     -0.00058              0.00105             -0.00000         *
 * O               6      0.00111              0.00001             -0.00002         *
 * Al              1     -0.00001             -0.00001             -0.00842         *
 * Al              2     -0.00001             -0.00000             -0.00843         *
 * Al              3     -0.00002              0.00001              0.00842         *
 * Al              4     -0.00002             -0.00003              0.00843         *
 *                                                                                  *
 ************************************************************************************

 ***************** Stress Tensor *****************
 *                                               *
 *          Cartesian components (GPa)           *
 * --------------------------------------------- *
 *             x             y             z     *
 *                                               *
 *  x     -0.057845      0.000014     -0.000045  *
 *  y      0.000014     -0.057870      0.000025  *
 *  z     -0.000045      0.000025     -0.023507  *
 *                                               *
 *  Pressure:    0.0464                          *
 *                                               *
 *************************************************

 Pseudo atomic calculation performed for O 2s2 2p4

 Converged in 14 iterations to a total energy of -431.1226 eV

 Pseudo atomic calculation performed for Al 3s2 3p1

 Converged in 11 iterations to a total energy of -105.9170 eV
Charge spilling parameter for spin component 1 = 0.78%

            Orbital Populations       
     Ion    Atom   Orbital             Charge
  -------------------------------------------
      O     1      S                    1.833
      O     1      Px                   1.720
      O     1      Py                   1.754
      O     1      Pz                   1.743
      O     2      S                    1.833
      O     2      Px                   1.745
      O     2      Py                   1.728
      O     2      Pz                   1.743
      O     3      S                    1.833
      O     3      Px                   1.745
      O     3      Py                   1.728
      O     3      Pz                   1.743
      O     4      S                    1.833
      O     4      Px                   1.745
      O     4      Py                   1.728
      O     4      Pz                   1.743
      O     5      S                    1.833
      O     5      Px                   1.745
      O     5      Py                   1.728
      O     5      Pz                   1.743
      O     6      S                    1.833
      O     6      Px                   1.720
      O     6      Py                   1.754
      O     6      Pz                   1.743
     Al     1      S                    0.518
     Al     1      Px                   0.305
     Al     1      Py                   0.305
     Al     1      Pz                   0.298
     Al     2      S                    0.518
     Al     2      Px                   0.305
     Al     2      Py                   0.305
     Al     2      Pz                   0.297
     Al     3      S                    0.518
     Al     3      Px                   0.305
     Al     3      Py                   0.305
     Al     3      Pz                   0.298
     Al     4      S                    0.518
     Al     4      Px                   0.305
     Al     4      Py                   0.305
     Al     4      Pz                   0.298
  -------------------------------------------
                           Total:      48.000
  -------------------------------------------

     Atomic Populations (Mulliken)
     -----------------------------
Species          Ion     s      p      d      f     Total  Charge (e)
=====================================================================
  O               1     1.83   5.22   0.00   0.00   7.05    -1.05
  O               2     1.83   5.22   0.00   0.00   7.05    -1.05
  O               3     1.83   5.22   0.00   0.00   7.05    -1.05
  O               4     1.83   5.22   0.00   0.00   7.05    -1.05
  O               5     1.83   5.22   0.00   0.00   7.05    -1.05
  O               6     1.83   5.22   0.00   0.00   7.05    -1.05
  Al              1     0.52   0.91   0.00   0.00   1.43     1.57
  Al              2     0.52   0.91   0.00   0.00   1.43     1.57
  Al              3     0.52   0.91   0.00   0.00   1.43     1.57
  Al              4     0.52   0.91   0.00   0.00   1.43     1.57
=====================================================================

                 Bond                   Population      Length (A)
======================================================================
               O 5 -- Al 4                   0.36        1.86114
               O 6 -- Al 1                   0.36        1.86114
               O 3 -- Al 3                   0.36        1.86114
               O 4 -- Al 1                   0.36        1.86114
               O 2 -- Al 3                   0.36        1.86114
               O 1 -- Al 3                   0.36        1.86114
               O 5 -- Al 1                   0.36        1.86114
               O 1 -- Al 2                   0.36        1.86114
               O 2 -- Al 2                   0.36        1.86114
               O 6 -- Al 4                   0.36        1.86114
               O 3 -- Al 2                   0.36        1.86114
               O 4 -- Al 4                   0.36        1.86114
               O 4 -- Al 2                   0.26        1.97352
               O 3 -- Al 4                   0.26        1.97352
               O 1 -- Al 1                   0.26        1.97352
               O 6 -- Al 3                   0.26        1.97352
               O 2 -- Al 1                   0.26        1.97352
               O 4 -- Al 3                   0.26        1.97352
               O 1 -- Al 4                   0.26        1.97352
               O 5 -- Al 2                   0.26        1.97352
               O 5 -- Al 3                   0.26        1.97352
               O 3 -- Al 1                   0.26        1.97352
               O 2 -- Al 4                   0.26        1.97352
               O 6 -- Al 2                   0.26        1.97352
               O 4 -- O 6                   -0.17        2.52857
               O 1 -- O 2                   -0.17        2.52857
               O 2 -- O 3                   -0.17        2.52857
               O 1 -- O 3                   -0.17        2.52857
               O 5 -- O 6                   -0.17        2.52857
               O 4 -- O 5                   -0.17        2.52857
               O 1 -- O 6                   -0.16        2.62412
               O 2 -- O 4                   -0.16        2.62412
               O 3 -- O 5                   -0.16        2.62412
              Al 1 -- Al 4                  -0.52        2.65599
              Al 2 -- Al 3                  -0.52        2.65599
               O 2 -- O 5                   -0.10        2.73135
               O 1 -- O 4                   -0.10        2.73135
               O 2 -- O 6                   -0.10        2.73135
               O 3 -- O 4                   -0.10        2.73135
               O 1 -- O 5                   -0.10        2.73135
               O 3 -- O 6                   -0.10        2.73135
              Al 2 -- Al 4                  -0.65        2.79844
              Al 1 -- Al 3                  -0.65        2.79844
======================================================================


Writing analysis data to al2o3_xc-PBESOL_c-0800_k-5x5x5_geom.castep_bin

Writing model to al2o3_xc-PBESOL_c-0800_k-5x5x5_geom.check
 
 A BibTeX formatted list of references used in this run has been written to 
 al2o3_xc-PBESOL_c-0800_k-5x5x5_geom.bib
 
Initialisation time =      7.26 s
Calculation time    =   1080.35 s
Finalisation time   =      0.26 s
Total time          =   1087.87 s
Peak Memory Use     = 677552 kB
  
Overall parallel efficiency rating: Excellent (97%)                             
  
Data was distributed by:-
k-point (9-way); efficiency rating: Excellent (97%)                             
