 +-------------------------------------------------+
 |                                                 |
 |      CCC   AA    SSS  TTTTT  EEEEE  PPPP        |
 |     C     A  A  S       T    E      P   P       |
 |     C     AAAA   SS     T    EEE    PPPP        |
 |     C     A  A     S    T    E      P           |
 |      CCC  A  A  SSS     T    EEEEE  P           |
 |                                                 |
 +-------------------------------------------------+
 |                                                 |
 | Welcome to Academic Release CASTEP version 19.11|          
 | Ab Initio Total Energy Program                  |
 |                                                 |
 | Authors:                                        |
 | M. Segall, M. Probert, C. Pickard, P. Hasnip,   |
 | S. Clark, K. Refson, J. R. Yates, M. Payne      |
 |                                                 |
 | Contributors:                                   |
 | P. Lindan, P. Haynes, J. White, V. Milman,      |
 | N. Govind, M. Gibson, P. Tulip, V. Cocula,      |
 | B. Montanari, D. Quigley, M. Glover,            |
 | L. Bernasconi, A. Perlov, M. Plummer,           |
 | E. McNellis, J. Meyer, J. Gale, D. Jochym       |
 | J. Aarons, B. Walker, R. Gillen, D. Jones       |
 | T. Green, I. J. Bush, C. J. Armstrong,          |
 | E. J. Higgins, E. L. Brown, M. S. McFly,        |
 | J. Wilkins, B-C. Shih, P. J. P. Byrne           |
 |                                                 |
 | Copyright (c) 2000 - 2018                       |
 |                                                 |
 |     Distributed under the terms of an           |
 |     Agreement between the United Kingdom        |
 |     Car-Parrinello (UKCP) Consortium,           |
 |     Daresbury Laboratory and Accelrys, Inc.     |
 |                                                 |
 | Please cite                                     |
 |                                                 |
 |     "First principles methods using CASTEP"     |
 |                                                 |
 |         Zeitschrift fuer Kristallographie       |
 |           220(5-6) pp. 567-570 (2005)           |
 |                                                 |
 | S. J. Clark, M. D. Segall, C. J. Pickard,       |
 | P. J. Hasnip, M. J. Probert, K. Refson,         |
 | M. C. Payne                                     |
 |                                                 |
 |       in all publications arising from          |
 |              your use of CASTEP                 |
 |                                                 |
 +-------------------------------------------------+
 |                                                 |
 |              http://www.castep.org              |
 |                                                 |
 +-------------------------------------------------+



 Compiled for linux_x86_64_gfortran7.0 on Fri, 31 Jan 2020 20:20:28 +0100
 from code version e1fe0d666396+ Castep191_branch Thu, 24 Oct 2019 13:54:03 +0100
 Compiler: GNU Fortran 7.4.0; Optimisation: fast
 MATHLIBS: default (LAPACK version 3.7.1)
 FFT Lib : default
 Fundamental constants values: CODATA 2014

 Run started: Sat, 06 Nov 2021 01:44:16 +0100

 Atomic calculation performed for O: 1s2 2s2 2p4

 Converged in 57 iterations to an ae energy of -2034.019 eV

   ============================================================                
   | Pseudopotential Report - Date of generation  6-11-2021   |                
   ------------------------------------------------------------                
   | Element: O Ionic charge:  6.00 Level of theory: PBESOL   |                
   | Atomic Solver: Koelling-Harmon                           |                
   |                                                          |                
   |               Reference Electronic Structure             |                
   |         Orbital         Occupation         Energy        |                
   |            2s              2.000           -0.875        |                
   |            2p              4.000           -0.330        |                
   |                                                          |                
   |                 Pseudopotential Definition               |                
   |        Beta     l      e      Rc     scheme   norm       |                
   |          1      0   -0.875   1.100     qc      0         |                
   |          2      0    0.250   1.100     qc      0         |                
   |          3      1   -0.330   1.100     qc      0         |                
   |          4      1    0.250   1.100     qc      0         |                
   |         loc     2    0.000   1.100     pn      0         |                
   |                                                          |                
   | Augmentation charge Rinner = 0.769                       |                
   | Partial core correction Rc = 0.769                       |                
   ------------------------------------------------------------                
   | "2|1.1|17|20|23|20:21(qc=8)"                             |                
   ------------------------------------------------------------                
   |      Author: Chris J. Pickard, Cambridge University      |                
   ============================================================                

 Atomic calculation performed for Al: 1s2 2s2 2p6 3s2 3p1

 Converged in 55 iterations to an ae energy of -6590.489 eV

   ============================================================                
   | Pseudopotential Report - Date of generation  6-11-2021   |                
   ------------------------------------------------------------                
   | Element: Al Ionic charge:  3.00 Level of theory: PBESOL  |                
   | Atomic Solver: Koelling-Harmon                           |                
   |                                                          |                
   |               Reference Electronic Structure             |                
   |         Orbital         Occupation         Energy        |                
   |            3s              2.000           -0.284        |                
   |            3p              1.000           -0.099        |                
   |                                                          |                
   |                 Pseudopotential Definition               |                
   |        Beta     l      e      Rc     scheme   norm       |                
   |          1      0   -0.284   2.192     qc      0         |                
   |          2      0    0.250   2.192     qc      0         |                
   |          3      1   -0.099   2.192     qc      0         |                
   |          4      1    0.250   2.192     qc      0         |                
   |          5      2    0.000   2.000     qc      0         |                
   |          6      2    0.250   2.000     qc      0         |                
   |         loc     3    0.000   2.192     pn      0         |                
   |                                                          |                
   | Augmentation charge Rinner = 1.398                       |                
   | Partial core correction Rc = 1.398                       |                
   ------------------------------------------------------------                
   | "3|2.2|2.2|1.4|4|5|5|30:31:32U2U2"                       |                
   ------------------------------------------------------------                
   |      Author: Chris J. Pickard, Cambridge University      |                
   ============================================================                

 Pseudo atomic calculation performed for O 2s2 2p4

 Converged in 14 iterations to a total energy of -431.1291 eV

 Pseudo atomic calculation performed for Al 3s2 3p1

 Converged in 11 iterations to a total energy of -105.9171 eV
 Calculation parallelised over 9 processes.
 Data is distributed by k-point(9-way)

 ************************************ Title ************************************
 

 ***************************** General Parameters ******************************
  
 output verbosity                               : normal  (1)
 write checkpoint data to                       : al2o3_xc-PBESOL_c-0900_k-5x5x5_geom.check
 type of calculation                            : geometry optimization
 stress calculation                             : off
 density difference calculation                 : off
 electron localisation func (ELF) calculation   : off
 Hirshfeld analysis                             : off
 unlimited duration calculation
 timing information                             : on
 memory usage estimate                          : on
 write extra output files                       : on
 write final potential to formatted file        : off
 write final density to formatted file          : off
 write structure in CIF formatted file          : on
 write structure in CELL formatted file         : on
 write BibTeX reference list                    : on
 write OTFG pseudopotential files               : on
 write electrostatic potential file             : on
 write bands file                               : on
 checkpoint writing                             : both castep_bin and check files
  
 output         length unit                     : A
 output           mass unit                     : amu
 output           time unit                     : ps
 output         charge unit                     : e
 output           spin unit                     : hbar/2
 output         energy unit                     : eV
 output          force unit                     : eV/A
 output       velocity unit                     : A/ps
 output       pressure unit                     : GPa
 output     inv_length unit                     : 1/A
 output      frequency unit                     : cm-1
 output force constant unit                     : eV/A**2
 output         volume unit                     : A**3
 output   IR intensity unit                     : (D/A)**2/amu
 output         dipole unit                     : D
 output         efield unit                     : eV/A/e
 output        entropy unit                     : J/mol/K
  
 wavefunctions paging                           : none
 random number generator seed                   : randomised (14416510)
 data distribution                              : optimal for this architecture
 optimization strategy                          : maximize speed(+++)

 *********************** Exchange-Correlation Parameters ***********************
  
 using functional                               : PBE for solids (2008)
 relativistic treatment                         : Koelling-Harmon
 DFT+D: Semi-empirical dispersion correction    : off

 ************************* Pseudopotential Parameters **************************
  
 pseudopotential representation                 : reciprocal space
 <beta|phi> representation                      : reciprocal space
 spin-orbit coupling                            : off

 **************************** Basis Set Parameters *****************************
  
 plane wave basis set cut-off                   :   900.0000   eV
 size of standard grid                          :     1.7500
 size of   fine   gmax                          :    26.8966   1/A
 finite basis set correction                    : automatic
 number of sample energies                      :          3
           sample  spacing                      :     5.0000   eV

 **************************** Electronic Parameters ****************************
  
 number of  electrons                           :  48.00    
 net charge of system                           :  0.000    
 treating system as non-spin-polarized
 number of bands                                :         29

 ********************* Electronic Minimization Parameters **********************
  
 Method: Treating system as metallic with density mixing treatment of electrons,
         and number of  SD  steps               :          1
         and number of  CG  steps               :          4
  
 total energy / atom convergence tol.           : 0.1000E-04   eV
 eigen-energy convergence tolerance             : 0.1000E-05   eV
 max force / atom convergence tol.              : ignored
 convergence tolerance window                   :          3   cycles
 max. number of SCF cycles                      :         30
 number of fixed-spin iterations                :         10
 smearing scheme                                : Gaussian
 smearing width                                 : 0.2000       eV
 Fermi energy convergence tolerance             : 0.2721E-13   eV
 periodic dipole correction                     : NONE

 ************************** Density Mixing Parameters **************************
  
 density-mixing scheme                          : Broyden
 max. length of mixing history                  :         20
 charge density mixing amplitude                : 0.8000    
 cut-off energy for mixing                      :  900.0       eV

 *********************** Population Analysis Parameters ************************
  
 Population analysis with cutoff                :  3.000       A
 Population analysis output                     : summary and pdos components

 ********************** Geometry Optimization Parameters ***********************
  
 optimization method                            : LBFGS
 max. no. of LBFGS updates                      : unbounded
 variable cell method                           : fixed basis quality
 max. number of steps                           :        150
 estimated bulk modulus                         :  500.0       GPa
 estimated <frequency>                          :  1668.       cm-1
 geom line minimiser                            : on
 with line minimiser tolerance                  :     0.4000
 total energy convergence tolerance             : 0.1000E-04   eV/atom
        max ionic |force| tolerance             : 0.1000E-01   eV/A
 max ionic |displacement| tolerance             : 0.1000E-02   A
   max |stress component| tolerance             : 0.1000       GPa
 convergence tolerance window                   :          2   steps
 backup results every                           :          5   steps
 write geom trajectory file                     : on

 *******************************************************************************
  

                           -------------------------------
                                      Unit Cell
                           -------------------------------
        Real Lattice(A)                      Reciprocal Lattice(1/A)
     2.3801000     1.3741510     4.3310000        1.319941454   0.762068577   0.483582396
    -2.3801000     1.3741510     4.3310000       -1.319941454   0.762068577   0.483582396
     0.0000000    -2.7483030     4.3310000       -0.000000000  -1.524137154   0.483582220

                       Lattice parameters(A)       Cell Angles
                    a =      5.129398          alpha =   55.292535
                    b =      5.129398          beta  =   55.292535
                    c =      5.129399          gamma =   55.292537

                       Current cell volume =            84.990269       A**3
                                   density =             2.399364   AMU/A**3
                                           =             3.984237     g/cm^3

                           -------------------------------
                                     Cell Contents
                           -------------------------------
                         Total number of ions in cell =   10
                      Total number of species in cell =    2
                        Max number of any one species =    6

            xxxxxxxxxxxxxxxxxxxxxxxxxxxxxxxxxxxxxxxxxxxxxxxxxxxxxxxxxxxx
            x  Element    Atom        Fractional coordinates of atoms  x
            x            Number           u          v          w      x
            x----------------------------------------------------------x
            x  O            1         0.556260   0.943740   0.250000   x 
            x  O            2         0.943740   0.250000   0.556260   x 
            x  O            3         0.250000   0.556260   0.943740   x 
            x  O            4         0.056260   0.750000   0.443740   x 
            x  O            5         0.750000   0.443740   0.056260   x 
            x  O            6         0.443740   0.056260   0.750000   x 
            x  Al           1         0.147900   0.147900   0.147900   x 
            x  Al           2         0.647900   0.647900   0.647900   x 
            x  Al           3         0.852100   0.852100   0.852100   x 
            x  Al           4         0.352100   0.352100   0.352100   x 
            xxxxxxxxxxxxxxxxxxxxxxxxxxxxxxxxxxxxxxxxxxxxxxxxxxxxxxxxxxxx


                         No user defined ionic velocities

                           -------------------------------
                                   Details of Species
                           -------------------------------

                               Mass of species in AMU
                                    O   15.9994000
                                    Al   26.9815400

                          Electric Quadrupole Moment (Barn)
                                    O   -0.0255800 Isotope 17
                                    Al    0.1466000 Isotope 27

                          Files used for pseudopotentials:
                                    O 2|1.1|17|20|23|20:21(qc=8)
                                    Al 3|2.2|2.2|1.4|4|5|5|30:31:32U2U2

                           -------------------------------
                              k-Points For BZ Sampling
                           -------------------------------
                       MP grid size for SCF calculation is  5  5  5
                            with an offset of   0.000  0.000  0.000
                       Number of kpoints used =            63

                           -------------------------------
                               Symmetry and Constraints
                           -------------------------------

                      Maximum deviation from symmetry =  0.00000         ANG

                      Number of symmetry operations   =           1
                      Number of ionic constraints     =           3
                      Point group of crystal =     1: C1, 1, 1
                      Space group of crystal =   167: R-3c, -R 3 2"c

             Set iprint > 1 for details on symmetry rotations/translations

                         Centre of mass is constrained
             Set iprint > 1 for details of linear ionic constraints

                         Number of cell constraints= 0
                         Cell constraints are:  1 2 3 4 5 6

                         External pressure/stress (GPa)
                          0.00000   0.00000   0.00000
                                    0.00000   0.00000
                                              0.00000
  
+---------------- MEMORY AND SCRATCH DISK ESTIMATES PER PROCESS --------------+
|                                                     Memory          Disk    |
| Baseline code, static data and system overhead      196.0 MB         0.0 MB |
| BLAS internal memory storage                          0.0 MB         0.0 MB |
| Model and support data                              218.5 MB         0.0 MB |
| Electronic energy minimisation requirements          63.0 MB         0.0 MB |
| Force calculation requirements                       13.2 MB         0.0 MB |
|                                               ----------------------------- |
| Approx. total storage required per process          477.5 MB         0.0 MB |
|                                                                             |
| Requirements will fluctuate during execution and may exceed these estimates |
+-----------------------------------------------------------------------------+
Calculating finite basis set correction with  3 cut-off energies.
Calculating total energy with cut-off of  890.000 eV.
------------------------------------------------------------------------ <-- SCF
SCF loop      Energy           Fermi           Energy gain       Timer   <-- SCF
                               energy          per atom          (sec)   <-- SCF
------------------------------------------------------------------------ <-- SCF
Initial  -2.24863906E+003  0.00000000E+000                         9.82  <-- SCF
      1  -2.85534705E+003  1.11371135E+001   6.06707993E+001      16.07  <-- SCF
      2  -3.09079551E+003  2.98347526E+000   2.35448463E+001      21.66  <-- SCF
      3  -3.09679834E+003  2.98074097E+000   6.00282741E-001      26.94  <-- SCF
      4  -3.09267248E+003  7.00286981E+000  -4.12586355E-001      33.73  <-- SCF
      5  -3.08935942E+003  5.44924233E+000  -3.31305813E-001      40.50  <-- SCF
      6  -3.08936236E+003  5.54672316E+000   2.93990231E-004      47.29  <-- SCF
      7  -3.08936389E+003  5.59948078E+000   1.52874286E-004      53.18  <-- SCF
      8  -3.08936394E+003  5.59472046E+000   5.46276916E-006      58.48  <-- SCF
      9  -3.08936395E+003  5.59239138E+000   9.04048407E-007      62.89  <-- SCF
------------------------------------------------------------------------ <-- SCF
 
Final energy, E             =  -3089.363952150     eV
Final free energy (E-TS)    =  -3089.363952150     eV
(energies not corrected for finite basis set)
 
NB est. 0K energy (E-0.5TS)      =  -3089.363952150     eV
 
Calculating total energy with cut-off of  895.000 eV.
------------------------------------------------------------------------ <-- SCF
SCF loop      Energy           Fermi           Energy gain       Timer   <-- SCF
                               energy          per atom          (sec)   <-- SCF
------------------------------------------------------------------------ <-- SCF
Initial  -3.08936395E+003  0.00000000E+000                        64.70  <-- SCF
      1  -3.08936434E+003  5.59395075E+000   3.86269144E-005      69.59  <-- SCF
      2  -3.08936434E+003  5.59395075E+000   1.70108962E-007      73.71  <-- SCF
      3  -3.08936434E+003  5.59379904E+000   3.43556357E-008      77.89  <-- SCF
      4  -3.08936434E+003  5.59383410E+000   1.87606462E-008      81.96  <-- SCF
------------------------------------------------------------------------ <-- SCF
 
Final energy, E             =  -3089.364339288     eV
Final free energy (E-TS)    =  -3089.364339288     eV
(energies not corrected for finite basis set)
 
NB est. 0K energy (E-0.5TS)      =  -3089.364339288     eV
 
Calculating total energy with cut-off of  900.000 eV.
------------------------------------------------------------------------ <-- SCF
SCF loop      Energy           Fermi           Energy gain       Timer   <-- SCF
                               energy          per atom          (sec)   <-- SCF
------------------------------------------------------------------------ <-- SCF
Initial  -3.08936434E+003  0.00000000E+000                        83.77  <-- SCF
      1  -3.08936466E+003  5.59381229E+000   3.18437918E-005      88.52  <-- SCF
      2  -3.08936466E+003  5.59381228E+000   1.15440671E-008      92.39  <-- SCF
      3  -3.08936466E+003  5.59385023E+000   1.22893870E-008      96.28  <-- SCF
      4  -3.08936466E+003  5.59384020E+000   1.28824256E-009     100.13  <-- SCF
------------------------------------------------------------------------ <-- SCF
 
Final energy, E             =  -3089.364657973     eV
Final free energy (E-TS)    =  -3089.364657973     eV
(energies not corrected for finite basis set)
 
NB est. 0K energy (E-0.5TS)      =  -3089.364657973     eV
 
 For future reference: finite basis dEtot/dlog(Ecut) =      -0.061742eV
 Total energy corrected for finite basis set =   -3089.364652 eV
 
+---------------- MEMORY AND SCRATCH DISK ESTIMATES PER PROCESS --------------+
|                                                     Memory          Disk    |
| Model and support data                              226.2 MB         0.0 MB |
| Electronic energy minimisation requirements          63.0 MB         0.0 MB |
| Geometry minimisation requirements                   81.1 MB         0.0 MB |
|                                               ----------------------------- |
| Approx. total storage required per process          370.3 MB         0.0 MB |
|                                                                             |
| Requirements will fluctuate during execution and may exceed these estimates |
+-----------------------------------------------------------------------------+
 

 ************************************** Forces **************************************
 *                                                                                  *
 *                           Cartesian components (eV/A)                            *
 * -------------------------------------------------------------------------------- *
 *                         x                    y                    z              *
 *                                                                                  *
 * O               1     -0.03569              0.00002              0.00000         *
 * O               2      0.01782              0.03091              0.00001         *
 * O               3      0.01788             -0.03098              0.00000         *
 * O               4     -0.01780             -0.03086             -0.00001         *
 * O               5     -0.01785              0.03092             -0.00001         *
 * O               6      0.03564             -0.00002             -0.00000         *
 * Al              1     -0.00000              0.00001              0.02019         *
 * Al              2      0.00000             -0.00000              0.02019         *
 * Al              3      0.00000             -0.00001             -0.02019         *
 * Al              4     -0.00000              0.00001             -0.02019         *
 *                                                                                  *
 ************************************************************************************

 ***************** Stress Tensor *****************
 *                                               *
 *          Cartesian components (GPa)           *
 * --------------------------------------------- *
 *             x             y             z     *
 *                                               *
 *  x     -1.801979     -0.000008      0.000030  *
 *  y     -0.000008     -1.801994      0.000001  *
 *  z      0.000030      0.000001     -1.212630  *
 *                                               *
 *  Pressure:    1.6055                          *
 *                                               *
 *************************************************
 LBFGS: finished iteration     0 with enthalpy= -3.08936465E+003 eV
  
 +-----------+-----------------+-----------------+------------+-----+ <-- LBFGS
 | Parameter |      value      |    tolerance    |    units   | OK? | <-- LBFGS
 +-----------+-----------------+-----------------+------------+-----+ <-- LBFGS
 |  dE/ion   |   0.000000E+000 |   1.000000E-005 |         eV | No  | <-- LBFGS
 |  |F|max   |   3.577021E-002 |   1.000000E-002 |       eV/A | No  | <-- LBFGS
 |  |dR|max  |   0.000000E+000 |   1.000000E-003 |          A | No  | <-- LBFGS
 |   Smax    |   1.801994E+000 |   1.000000E-001 |        GPa | No  | <-- LBFGS
 +-----------+-----------------+-----------------+------------+-----+ <-- LBFGS
  

================================================================================
 Starting LBFGS iteration          1 ...
================================================================================
  
 +------------+-------------+-------------+-----------------+ <-- min LBFGS
 |    Step    |   lambda    |   F.delta'  |    enthalpy     | <-- min LBFGS
 +------------+-------------+-------------+-----------------+ <-- min LBFGS
 |  previous  |    0.000000 |    0.055758 |    -3089.364652 | <-- min LBFGS
 +------------+-------------+-------------+-----------------+ <-- min LBFGS
  

--------------------------------------------------------------------------------
 LBFGS: starting iteration         1 with trial guess (lambda=  1.000000)
--------------------------------------------------------------------------------
 
+---------------- MEMORY AND SCRATCH DISK ESTIMATES PER PROCESS --------------+
|                                                     Memory          Disk    |
| Model and support data                              226.3 MB         0.0 MB |
| Electronic energy minimisation requirements          63.1 MB         0.0 MB |
| Geometry minimisation requirements                   81.3 MB         0.0 MB |
|                                               ----------------------------- |
| Approx. total storage required per process          370.7 MB         0.0 MB |
|                                                                             |
| Requirements will fluctuate during execution and may exceed these estimates |
+-----------------------------------------------------------------------------+
 

                           -------------------------------
                                      Unit Cell
                           -------------------------------
        Real Lattice(A)              Reciprocal Lattice(1/A)
     2.3829592     1.3758018     4.3345012        1.318357690   0.761154174   0.483191800
    -2.3829593     1.3758018     4.3345013       -1.318357679   0.761154187   0.483191748
    -0.0000001    -2.7516046     4.3345013        0.000000017  -1.522308360   0.483191597

                       Lattice parameters(A)       Cell Angles
                    a =      5.134124          alpha =   55.309332
                    b =      5.134124          beta  =   55.309333
                    c =      5.134124          gamma =   55.309335

                Current cell volume =            85.263466 A**3
                            density =             2.391676 amu/A**3
                                    =             3.971471 g/cm^3

                           -------------------------------
                                     Cell Contents
                           -------------------------------

            xxxxxxxxxxxxxxxxxxxxxxxxxxxxxxxxxxxxxxxxxxxxxxxxxxxxxxxxxxxxxxxxx
            x  Element         Atom        Fractional coordinates of atoms  x
            x                 Number           u          v          w      x
            x---------------------------------------------------------------x
            x  O                 1         0.556224   0.943776   0.250000   x
            x  O                 2         0.943776   0.250000   0.556224   x
            x  O                 3         0.250000   0.556224   0.943776   x
            x  O                 4         0.056224   0.750000   0.443776   x
            x  O                 5         0.750000   0.443776   0.056224   x
            x  O                 6         0.443776   0.056224   0.750000   x
            x  Al                1         0.147907   0.147908   0.147907   x
            x  Al                2         0.647908   0.647908   0.647907   x
            x  Al                3         0.852093   0.852093   0.852092   x
            x  Al                4         0.352093   0.352093   0.352092   x
            xxxxxxxxxxxxxxxxxxxxxxxxxxxxxxxxxxxxxxxxxxxxxxxxxxxxxxxxxxxxxxxxx


------------------------------------------------------------------------ <-- SCF
SCF loop      Energy           Fermi           Energy gain       Timer   <-- SCF
                               energy          per atom          (sec)   <-- SCF
------------------------------------------------------------------------ <-- SCF
Initial  -3.08935663E+003  0.00000000E+000                       120.42  <-- SCF
      1  -3.08937452E+003  5.49142410E+000   1.78840131E-003     126.42  <-- SCF
      2  -3.08937460E+003  5.49142404E+000   8.64527141E-006     131.68  <-- SCF
      3  -3.08937121E+003  5.61970947E+000  -3.39621812E-004     138.24  <-- SCF
      4  -3.08936679E+003  5.56322478E+000  -4.41979883E-004     144.74  <-- SCF
      5  -3.08936680E+003  5.56349234E+000   6.62017389E-007     148.38  <-- SCF
      6  -3.08936680E+003  5.56374429E+000   7.23698895E-008     152.01  <-- SCF
------------------------------------------------------------------------ <-- SCF
 
Final energy, E             =  -3089.366796029     eV
Final free energy (E-TS)    =  -3089.366796029     eV
(energies not corrected for finite basis set)
 
NB est. 0K energy (E-0.5TS)      =  -3089.366796029     eV
 

 ************************************** Forces **************************************
 *                                                                                  *
 *                           Cartesian components (eV/A)                            *
 * -------------------------------------------------------------------------------- *
 *                         x                    y                    z              *
 *                                                                                  *
 * O               1     -0.03758              0.00001             -0.00000         *
 * O               2      0.01879              0.03254             -0.00000         *
 * O               3      0.01878             -0.03254              0.00000         *
 * O               4     -0.01879             -0.03257              0.00000         *
 * O               5     -0.01878              0.03256             -0.00001         *
 * O               6      0.03758             -0.00001              0.00001         *
 * Al              1     -0.00000              0.00001              0.01362         *
 * Al              2      0.00000             -0.00000              0.01362         *
 * Al              3      0.00000             -0.00001             -0.01362         *
 * Al              4      0.00000              0.00001             -0.01362         *
 *                                                                                  *
 ************************************************************************************

 ***************** Stress Tensor *****************
 *                                               *
 *          Cartesian components (GPa)           *
 * --------------------------------------------- *
 *             x             y             z     *
 *                                               *
 *  x     -0.949495      0.000026      0.000025  *
 *  y      0.000026     -0.949451     -0.000032  *
 *  z      0.000025     -0.000032     -0.572223  *
 *                                               *
 *  Pressure:    0.8237                          *
 *                                               *
 *************************************************
  
 +------------+-------------+-------------+-----------------+ <-- min LBFGS
 |    Step    |   lambda    |   F.delta'  |    enthalpy     | <-- min LBFGS
 +------------+-------------+-------------+-----------------+ <-- min LBFGS
 |  previous  |    0.000000 |    0.055758 |    -3089.364652 | <-- min LBFGS
 | trial step |    1.000000 |    0.029280 |    -3089.366787 | <-- min LBFGS
 +------------+-------------+-------------+-----------------+ <-- min LBFGS
  

--------------------------------------------------------------------------------
 LBFGS: improving iteration         1 with line minimization (lambda=  2.105793)
--------------------------------------------------------------------------------
 
+---------------- MEMORY AND SCRATCH DISK ESTIMATES PER PROCESS --------------+
|                                                     Memory          Disk    |
| Model and support data                              226.4 MB         0.0 MB |
| Electronic energy minimisation requirements          63.3 MB         0.0 MB |
| Geometry minimisation requirements                   81.5 MB         0.0 MB |
|                                               ----------------------------- |
| Approx. total storage required per process          371.3 MB         0.0 MB |
|                                                                             |
| Requirements will fluctuate during execution and may exceed these estimates |
+-----------------------------------------------------------------------------+
 

                           -------------------------------
                                      Unit Cell
                           -------------------------------
        Real Lattice(A)              Reciprocal Lattice(1/A)
     2.3861208     1.3776273     4.3383728        1.316610796   0.760145584   0.482760616
    -2.3861212     1.3776272     4.3383730       -1.316610772   0.760145613   0.482760507
    -0.0000002    -2.7552555     4.3383729        0.000000036  -1.520291195   0.482760383

                       Lattice parameters(A)       Cell Angles
                    a =      5.139349          alpha =   55.327870
                    b =      5.139349          beta  =   55.327872
                    c =      5.139349          gamma =   55.327873

                Current cell volume =            85.566237 A**3
                            density =             2.383213 amu/A**3
                                    =             3.957418 g/cm^3

                           -------------------------------
                                     Cell Contents
                           -------------------------------

            xxxxxxxxxxxxxxxxxxxxxxxxxxxxxxxxxxxxxxxxxxxxxxxxxxxxxxxxxxxxxxxxx
            x  Element         Atom        Fractional coordinates of atoms  x
            x                 Number           u          v          w      x
            x---------------------------------------------------------------x
            x  O                 1         0.556184   0.943816   0.250000   x
            x  O                 2         0.943816   0.250000   0.556184   x
            x  O                 3         0.250000   0.556184   0.943816   x
            x  O                 4         0.056184   0.750000   0.443816   x
            x  O                 5         0.750000   0.443816   0.056184   x
            x  O                 6         0.443816   0.056185   0.750000   x
            x  Al                1         0.147916   0.147916   0.147916   x
            x  Al                2         0.647916   0.647916   0.647916   x
            x  Al                3         0.852084   0.852084   0.852084   x
            x  Al                4         0.352084   0.352084   0.352084   x
            xxxxxxxxxxxxxxxxxxxxxxxxxxxxxxxxxxxxxxxxxxxxxxxxxxxxxxxxxxxxxxxxx


------------------------------------------------------------------------ <-- SCF
SCF loop      Energy           Fermi           Energy gain       Timer   <-- SCF
                               energy          per atom          (sec)   <-- SCF
------------------------------------------------------------------------ <-- SCF
Initial  -3.08935520E+003  0.00000000E+000                       171.41  <-- SCF
      1  -3.08937694E+003  5.45099771E+000   2.17428042E-003     177.46  <-- SCF
      2  -3.08937705E+003  5.45099763E+000   1.07231357E-005     182.81  <-- SCF
      3  -3.08937296E+003  5.59209721E+000  -4.09265751E-004     189.38  <-- SCF
      4  -3.08936753E+003  5.52928409E+000  -5.42204258E-004     195.99  <-- SCF
      5  -3.08936754E+003  5.52957299E+000   8.18477492E-007     199.67  <-- SCF
      6  -3.08936754E+003  5.52984938E+000   9.09793758E-008     203.21  <-- SCF
------------------------------------------------------------------------ <-- SCF
 
Final energy, E             =  -3089.367543560     eV
Final free energy (E-TS)    =  -3089.367543560     eV
(energies not corrected for finite basis set)
 
NB est. 0K energy (E-0.5TS)      =  -3089.367543560     eV
 

 ************************************** Forces **************************************
 *                                                                                  *
 *                           Cartesian components (eV/A)                            *
 * -------------------------------------------------------------------------------- *
 *                         x                    y                    z              *
 *                                                                                  *
 * O               1     -0.03782             -0.00001              0.00001         *
 * O               2      0.01892              0.03274             -0.00001         *
 * O               3      0.01891             -0.03272             -0.00001         *
 * O               4     -0.01892             -0.03276              0.00001         *
 * O               5     -0.01890              0.03276              0.00001         *
 * O               6      0.03780              0.00000             -0.00000         *
 * Al              1     -0.00000              0.00000              0.00631         *
 * Al              2     -0.00000             -0.00001              0.00632         *
 * Al              3     -0.00000             -0.00001             -0.00631         *
 * Al              4      0.00000              0.00000             -0.00632         *
 *                                                                                  *
 ************************************************************************************

 ***************** Stress Tensor *****************
 *                                               *
 *          Cartesian components (GPa)           *
 * --------------------------------------------- *
 *             x             y             z     *
 *                                               *
 *  x      0.002367      0.000004     -0.000003  *
 *  y      0.000004      0.002361      0.000005  *
 *  z     -0.000003      0.000005      0.138458  *
 *                                               *
 *  Pressure:   -0.0477                          *
 *                                               *
 *************************************************
  
 +------------+-------------+-------------+-----------------+ <-- min LBFGS
 |    Step    |   lambda    |   F.delta'  |    enthalpy     | <-- min LBFGS
 +------------+-------------+-------------+-----------------+ <-- min LBFGS
 |  previous  |    0.000000 |    0.055758 |    -3089.364652 | <-- min LBFGS
 | trial step |    1.000000 |    0.029280 |    -3089.366787 | <-- min LBFGS
 |  line step |    2.105793 |   -0.000416 |    -3089.367531 | <-- min LBFGS
 +------------+-------------+-------------+-----------------+ <-- min LBFGS
  
 LBFGS: finished iteration     1 with enthalpy= -3.08936753E+003 eV
  
 +-----------+-----------------+-----------------+------------+-----+ <-- LBFGS
 | Parameter |      value      |    tolerance    |    units   | OK? | <-- LBFGS
 +-----------+-----------------+-----------------+------------+-----+ <-- LBFGS
 |  dE/ion   |   2.879348E-004 |   1.000000E-005 |         eV | No  | <-- LBFGS
 |  |F|max   |   3.783456E-002 |   1.000000E-002 |       eV/A | No  | <-- LBFGS
 |  |dR|max  |   3.620185E-004 |   1.000000E-003 |          A | Yes | <-- LBFGS
 |   Smax    |   1.384576E-001 |   1.000000E-001 |        GPa | No  | <-- LBFGS
 +-----------+-----------------+-----------------+------------+-----+ <-- LBFGS
  

================================================================================
 Starting LBFGS iteration          2 ...
================================================================================
  
 +------------+-------------+-------------+-----------------+ <-- min LBFGS
 |    Step    |   lambda    |   F.delta'  |    enthalpy     | <-- min LBFGS
 +------------+-------------+-------------+-----------------+ <-- min LBFGS
 |  previous  |    0.000000 |    0.011255 |    -3089.367531 | <-- min LBFGS
 +------------+-------------+-------------+-----------------+ <-- min LBFGS
  

--------------------------------------------------------------------------------
 LBFGS: starting iteration         2 with trial guess (lambda=  1.000000)
--------------------------------------------------------------------------------

                           -------------------------------
                                      Unit Cell
                           -------------------------------
        Real Lattice(A)              Reciprocal Lattice(1/A)
     2.3861417     1.3776393     4.3380042        1.316599269   0.760138931   0.482801643
    -2.3861421     1.3776393     4.3380044       -1.316599243   0.760138952   0.482801538
    -0.0000002    -2.7552797     4.3380043        0.000000031  -1.520277875   0.482801404

                       Lattice parameters(A)       Cell Angles
                    a =      5.139051          alpha =   55.331882
                    b =      5.139051          beta  =   55.331885
                    c =      5.139051          gamma =   55.331885

                Current cell volume =            85.560464 A**3
                            density =             2.383374 amu/A**3
                                    =             3.957685 g/cm^3

                           -------------------------------
                                     Cell Contents
                           -------------------------------

            xxxxxxxxxxxxxxxxxxxxxxxxxxxxxxxxxxxxxxxxxxxxxxxxxxxxxxxxxxxxxxxxx
            x  Element         Atom        Fractional coordinates of atoms  x
            x                 Number           u          v          w      x
            x---------------------------------------------------------------x
            x  O                 1         0.556146   0.943854   0.250000   x
            x  O                 2         0.943854   0.250000   0.556146   x
            x  O                 3         0.250000   0.556146   0.943854   x
            x  O                 4         0.056146   0.750000   0.443854   x
            x  O                 5         0.750000   0.443854   0.056146   x
            x  O                 6         0.443854   0.056146   0.750000   x
            x  Al                1         0.147918   0.147918   0.147918   x
            x  Al                2         0.647918   0.647918   0.647918   x
            x  Al                3         0.852082   0.852082   0.852082   x
            x  Al                4         0.352082   0.352082   0.352082   x
            xxxxxxxxxxxxxxxxxxxxxxxxxxxxxxxxxxxxxxxxxxxxxxxxxxxxxxxxxxxxxxxxx


------------------------------------------------------------------------ <-- SCF
SCF loop      Energy           Fermi           Energy gain       Timer   <-- SCF
                               energy          per atom          (sec)   <-- SCF
------------------------------------------------------------------------ <-- SCF
Initial  -3.08936730E+003  0.00000000E+000                       222.71  <-- SCF
      1  -3.08936769E+003  5.53050542E+000   3.83245732E-005     227.87  <-- SCF
      2  -3.08936769E+003  5.53050541E+000   8.32280759E-007     231.51  <-- SCF
      3  -3.08936758E+003  5.52892430E+000  -1.12272468E-005     235.54  <-- SCF
      4  -3.08936758E+003  5.53075224E+000   2.59774999E-007     239.20  <-- SCF
      5  -3.08936759E+003  5.53047259E+000   4.01569577E-007     242.76  <-- SCF
------------------------------------------------------------------------ <-- SCF
 
Final energy, E             =  -3089.367588136     eV
Final free energy (E-TS)    =  -3089.367588136     eV
(energies not corrected for finite basis set)
 
NB est. 0K energy (E-0.5TS)      =  -3089.367588136     eV
 

 ************************************** Forces **************************************
 *                                                                                  *
 *                           Cartesian components (eV/A)                            *
 * -------------------------------------------------------------------------------- *
 *                         x                    y                    z              *
 *                                                                                  *
 * O               1     -0.06301             -0.00000              0.00001         *
 * O               2      0.03156              0.05460             -0.00002         *
 * O               3      0.03151             -0.05459             -0.00002         *
 * O               4     -0.03155             -0.05458             -0.00001         *
 * O               5     -0.03148              0.05456              0.00004         *
 * O               6      0.06298              0.00001              0.00000         *
 * Al              1     -0.00001              0.00001              0.00793         *
 * Al              2     -0.00000              0.00000              0.00793         *
 * Al              3      0.00000             -0.00000             -0.00793         *
 * Al              4     -0.00000             -0.00000             -0.00794         *
 *                                                                                  *
 ************************************************************************************

 ***************** Stress Tensor *****************
 *                                               *
 *          Cartesian components (GPa)           *
 * --------------------------------------------- *
 *             x             y             z     *
 *                                               *
 *  x     -0.051978      0.000001      0.000027  *
 *  y      0.000001     -0.052004      0.000022  *
 *  z      0.000027      0.000022      0.054522  *
 *                                               *
 *  Pressure:    0.0165                          *
 *                                               *
 *************************************************
  
 +------------+-------------+-------------+-----------------+ <-- min LBFGS
 |    Step    |   lambda    |   F.delta'  |    enthalpy     | <-- min LBFGS
 +------------+-------------+-------------+-----------------+ <-- min LBFGS
 |  previous  |    0.000000 |    0.011255 |    -3089.367531 | <-- min LBFGS
 | trial step |    1.000000 |    0.016945 |    -3089.367573 | <-- min LBFGS
 +------------+-------------+-------------+-----------------+ <-- min LBFGS
  

--------------------------------------------------------------------------------
 LBFGS: improving iteration         2 with line minimization (lambda= -1.978209)
--------------------------------------------------------------------------------

                           -------------------------------
                                      Unit Cell
                           -------------------------------
        Real Lattice(A)              Reciprocal Lattice(1/A)
     2.3860795     1.3776034     4.3391021        1.316633599   0.760158747   0.482679478
    -2.3860799     1.3776034     4.3391023       -1.316633581   0.760158790   0.482679360
    -0.0000002    -2.7552078     4.3391022        0.000000046  -1.520317544   0.482679255

                       Lattice parameters(A)       Cell Angles
                    a =      5.139939          alpha =   55.319933
                    b =      5.139939          beta  =   55.319937
                    c =      5.139939          gamma =   55.319937

                Current cell volume =            85.577655 A**3
                            density =             2.382895 amu/A**3
                                    =             3.956890 g/cm^3

                           -------------------------------
                                     Cell Contents
                           -------------------------------

            xxxxxxxxxxxxxxxxxxxxxxxxxxxxxxxxxxxxxxxxxxxxxxxxxxxxxxxxxxxxxxxxx
            x  Element         Atom        Fractional coordinates of atoms  x
            x                 Number           u          v          w      x
            x---------------------------------------------------------------x
            x  O                 1         0.556260   0.943740   0.250000   x
            x  O                 2         0.943740   0.250000   0.556260   x
            x  O                 3         0.250000   0.556260   0.943740   x
            x  O                 4         0.056260   0.750000   0.443740   x
            x  O                 5         0.750000   0.443740   0.056260   x
            x  O                 6         0.443740   0.056260   0.750000   x
            x  Al                1         0.147911   0.147911   0.147911   x
            x  Al                2         0.647911   0.647911   0.647911   x
            x  Al                3         0.852089   0.852089   0.852089   x
            x  Al                4         0.352089   0.352089   0.352089   x
            xxxxxxxxxxxxxxxxxxxxxxxxxxxxxxxxxxxxxxxxxxxxxxxxxxxxxxxxxxxxxxxxx


------------------------------------------------------------------------ <-- SCF
SCF loop      Energy           Fermi           Energy gain       Timer   <-- SCF
                               energy          per atom          (sec)   <-- SCF
------------------------------------------------------------------------ <-- SCF
Initial  -3.08936481E+003  0.00000000E+000                       262.72  <-- SCF
      1  -3.08936834E+003  5.52988081E+000   3.52433925E-004     268.14  <-- SCF
      2  -3.08936842E+003  5.52987782E+000   8.50406863E-006     273.31  <-- SCF
      3  -3.08936745E+003  5.53315156E+000  -9.75413166E-005     278.79  <-- SCF
      4  -3.08936744E+003  5.52796259E+000  -1.19196316E-006     282.94  <-- SCF
      5  -3.08936744E+003  5.52896698E+000   9.57009469E-009     286.47  <-- SCF
------------------------------------------------------------------------ <-- SCF
 
Final energy, E             =  -3089.367435465     eV
Final free energy (E-TS)    =  -3089.367435465     eV
(energies not corrected for finite basis set)
 
NB est. 0K energy (E-0.5TS)      =  -3089.367435465     eV
 

 ************************************** Forces **************************************
 *                                                                                  *
 *                           Cartesian components (eV/A)                            *
 * -------------------------------------------------------------------------------- *
 *                         x                    y                    z              *
 *                                                                                  *
 * O               1     -0.02627              0.00001             -0.00001         *
 * O               2      0.01306              0.02265             -0.00001         *
 * O               3      0.01311             -0.02273              0.00002         *
 * O               4     -0.01308             -0.02266              0.00000         *
 * O               5     -0.01310              0.02271             -0.00001         *
 * O               6      0.02629             -0.00000              0.00000         *
 * Al              1     -0.00000              0.00001              0.00844         *
 * Al              2     -0.00000             -0.00001              0.00844         *
 * Al              3     -0.00000             -0.00000             -0.00843         *
 * Al              4      0.00000              0.00001             -0.00844         *
 *                                                                                  *
 ************************************************************************************

 ***************** Stress Tensor *****************
 *                                               *
 *          Cartesian components (GPa)           *
 * --------------------------------------------- *
 *             x             y             z     *
 *                                               *
 *  x      0.044264      0.000007     -0.000000  *
 *  y      0.000007      0.044299     -0.000001  *
 *  z     -0.000000     -0.000001      0.214049  *
 *                                               *
 *  Pressure:   -0.1009                          *
 *                                               *
 *************************************************
  
 +------------+-------------+-------------+-----------------+ <-- min LBFGS
 |    Step    |   lambda    |   F.delta'  |    enthalpy     | <-- min LBFGS
 +------------+-------------+-------------+-----------------+ <-- min LBFGS
 |  previous  |    0.000000 |    0.011255 |    -3089.367531 | <-- min LBFGS
 | trial step |    1.000000 |    0.016945 |    -3089.367573 | <-- min LBFGS
 |  line step |   -1.978209 |    0.009074 |    -3089.367427 | <-- min LBFGS
 +------------+-------------+-------------+-----------------+ <-- min LBFGS
  

--------------------------------------------------------------------------------
 LBFGS: improving iteration         2 with quad minimization (lambda= -6.823808)
--------------------------------------------------------------------------------

                           -------------------------------
                                      Unit Cell
                           -------------------------------
        Real Lattice(A)              Reciprocal Lattice(1/A)
     2.3859782     1.3775451     4.3408885        1.316689460   0.760190991   0.482480847
    -2.3859786     1.3775449     4.3408887       -1.316689453   0.760191069   0.482480706
    -0.0000003    -2.7550907     4.3408885        0.000000071  -1.520382091   0.482480649

                       Lattice parameters(A)       Cell Angles
                    a =      5.141385          alpha =   55.300500
                    b =      5.141385          beta  =   55.300505
                    c =      5.141385          gamma =   55.300504

                Current cell volume =            85.605619 A**3
                            density =             2.382117 amu/A**3
                                    =             3.955597 g/cm^3

                           -------------------------------
                                     Cell Contents
                           -------------------------------

            xxxxxxxxxxxxxxxxxxxxxxxxxxxxxxxxxxxxxxxxxxxxxxxxxxxxxxxxxxxxxxxxx
            x  Element         Atom        Fractional coordinates of atoms  x
            x                 Number           u          v          w      x
            x---------------------------------------------------------------x
            x  O                 1         0.556445   0.943555   0.250000   x
            x  O                 2         0.943555   0.250000   0.556445   x
            x  O                 3         0.250000   0.556445   0.943555   x
            x  O                 4         0.056445   0.750000   0.443555   x
            x  O                 5         0.750000   0.443555   0.056445   x
            x  O                 6         0.443555   0.056445   0.750000   x
            x  Al                1         0.147900   0.147899   0.147899   x
            x  Al                2         0.647900   0.647900   0.647899   x
            x  Al                3         0.852101   0.852101   0.852100   x
            x  Al                4         0.352101   0.352101   0.352100   x
            xxxxxxxxxxxxxxxxxxxxxxxxxxxxxxxxxxxxxxxxxxxxxxxxxxxxxxxxxxxxxxxxx


------------------------------------------------------------------------ <-- SCF
SCF loop      Energy           Fermi           Energy gain       Timer   <-- SCF
                               energy          per atom          (sec)   <-- SCF
------------------------------------------------------------------------ <-- SCF
Initial  -3.08936036E+003  0.00000000E+000                       306.46  <-- SCF
      1  -3.08936934E+003  5.52665447E+000   8.97627731E-004     311.98  <-- SCF
      2  -3.08936953E+003  5.52665413E+000   1.90779397E-005     317.54  <-- SCF
      3  -3.08936710E+003  5.53326859E+000  -2.42696504E-004     323.38  <-- SCF
      4  -3.08936707E+003  5.52449303E+000  -2.87070598E-006     328.61  <-- SCF
      5  -3.08936707E+003  5.52653964E+000  -4.71995734E-007     332.35  <-- SCF
------------------------------------------------------------------------ <-- SCF
 
Final energy, E             =  -3089.367068145     eV
Final free energy (E-TS)    =  -3089.367068145     eV
(energies not corrected for finite basis set)
 
NB est. 0K energy (E-0.5TS)      =  -3089.367068145     eV
 

 ************************************** Forces **************************************
 *                                                                                  *
 *                           Cartesian components (eV/A)                            *
 * -------------------------------------------------------------------------------- *
 *                         x                    y                    z              *
 *                                                                                  *
 * O               1     -0.04772              0.00001              0.00002         *
 * O               2      0.02391              0.04132              0.00000         *
 * O               3      0.02388             -0.04132             -0.00003         *
 * O               4     -0.02391             -0.04135              0.00000         *
 * O               5     -0.02389              0.04138              0.00001         *
 * O               6      0.04777             -0.00000             -0.00001         *
 * Al              1     -0.00001             -0.00000              0.01794         *
 * Al              2     -0.00001             -0.00002              0.01794         *
 * Al              3     -0.00001             -0.00002             -0.01794         *
 * Al              4     -0.00000             -0.00000             -0.01794         *
 *                                                                                  *
 ************************************************************************************

 ***************** Stress Tensor *****************
 *                                               *
 *          Cartesian components (GPa)           *
 * --------------------------------------------- *
 *             x             y             z     *
 *                                               *
 *  x      0.074540      0.000028     -0.000018  *
 *  y      0.000028      0.074505      0.000030  *
 *  z     -0.000018      0.000030      0.404739  *
 *                                               *
 *  Pressure:   -0.1846                          *
 *                                               *
 *************************************************
  
 +------------+-------------+-------------+-----------------+ <-- min LBFGS
 |    Step    |   lambda    |   F.delta'  |    enthalpy     | <-- min LBFGS
 +------------+-------------+-------------+-----------------+ <-- min LBFGS
 |  previous  |    0.000000 |    0.011255 |    -3089.367531 | <-- min LBFGS
 | trial step |    1.000000 |    0.016945 |    -3089.367573 | <-- min LBFGS
 |  line step |   -1.978209 |    0.009074 |    -3089.367427 | <-- min LBFGS
 |  quad step |   -6.823808 |    0.016769 |    -3089.367067 | <-- min LBFGS
 +------------+-------------+-------------+-----------------+ <-- min LBFGS
  
 LBFGS: reverting to earlier configuration

                           -------------------------------
                                      Unit Cell
                           -------------------------------
        Real Lattice(A)              Reciprocal Lattice(1/A)
     2.3860795     1.3776034     4.3391021        1.316633599   0.760158747   0.482679478
    -2.3860799     1.3776034     4.3391023       -1.316633581   0.760158790   0.482679360
    -0.0000002    -2.7552078     4.3391022        0.000000046  -1.520317544   0.482679255

                       Lattice parameters(A)       Cell Angles
                    a =      5.139939          alpha =   55.319933
                    b =      5.139939          beta  =   55.319937
                    c =      5.139939          gamma =   55.319937

                Current cell volume =            85.577655 A**3
                            density =             2.382895 amu/A**3
                                    =             3.956890 g/cm^3

                           -------------------------------
                                     Cell Contents
                           -------------------------------

            xxxxxxxxxxxxxxxxxxxxxxxxxxxxxxxxxxxxxxxxxxxxxxxxxxxxxxxxxxxxxxxxx
            x  Element         Atom        Fractional coordinates of atoms  x
            x                 Number           u          v          w      x
            x---------------------------------------------------------------x
            x  O                 1         0.556260   0.943740   0.250000   x
            x  O                 2         0.943740   0.250000   0.556260   x
            x  O                 3         0.250000   0.556260   0.943740   x
            x  O                 4         0.056260   0.750000   0.443740   x
            x  O                 5         0.750000   0.443740   0.056260   x
            x  O                 6         0.443740   0.056260   0.750000   x
            x  Al                1         0.147911   0.147911   0.147911   x
            x  Al                2         0.647911   0.647911   0.647911   x
            x  Al                3         0.852089   0.852089   0.852089   x
            x  Al                4         0.352089   0.352089   0.352089   x
            xxxxxxxxxxxxxxxxxxxxxxxxxxxxxxxxxxxxxxxxxxxxxxxxxxxxxxxxxxxxxxxxx


 LBFGS: updated estimated <frequency>  =1794.75210 cm-1
 LBFGS: updated estimated bulk modulus = 247.51435 GPa
 LBFGS: finished iteration     2 with enthalpy= -3.08936743E+003 eV
  
 +-----------+-----------------+-----------------+------------+-----+ <-- LBFGS
 | Parameter |      value      |    tolerance    |    units   | OK? | <-- LBFGS
 +-----------+-----------------+-----------------+------------+-----+ <-- LBFGS
 |  dE/ion   |   1.044792E-005 |   1.000000E-005 |         eV | No  | <-- LBFGS
 |  |F|max   |   2.628550E-002 |   1.000000E-002 |       eV/A | No  | <-- LBFGS
 |  |dR|max  |   3.608642E-004 |   1.000000E-003 |          A | Yes | <-- LBFGS
 |   Smax    |   2.140493E-001 |   1.000000E-001 |        GPa | No  | <-- LBFGS
 +-----------+-----------------+-----------------+------------+-----+ <-- LBFGS
  

================================================================================
 Starting LBFGS iteration          3 ...
================================================================================
  
 +------------+-------------+-------------+-----------------+ <-- min LBFGS
 |    Step    |   lambda    |   F.delta'  |    enthalpy     | <-- min LBFGS
 +------------+-------------+-------------+-----------------+ <-- min LBFGS
 |  previous  |    0.000000 |    0.006387 |    -3089.367427 | <-- min LBFGS
 +------------+-------------+-------------+-----------------+ <-- min LBFGS
  

--------------------------------------------------------------------------------
 LBFGS: starting iteration         3 with trial guess (lambda=  1.000000)
--------------------------------------------------------------------------------

                           -------------------------------
                                      Unit Cell
                           -------------------------------
        Real Lattice(A)              Reciprocal Lattice(1/A)
     2.3859380     1.3775217     4.3378560        1.316711705   0.760203885   0.482818138
    -2.3859383     1.3775216     4.3378562       -1.316711672   0.760203903   0.482818020
    -0.0000002    -2.7550442     4.3378561        0.000000032  -1.520407797   0.482817917

                       Lattice parameters(A)       Cell Angles
                    a =      5.138800          alpha =   55.329688
                    b =      5.138800          beta  =   55.329690
                    c =      5.138800          gamma =   55.329693

                Current cell volume =            85.542925 A**3
                            density =             2.383862 amu/A**3
                                    =             3.958497 g/cm^3

                           -------------------------------
                                     Cell Contents
                           -------------------------------

            xxxxxxxxxxxxxxxxxxxxxxxxxxxxxxxxxxxxxxxxxxxxxxxxxxxxxxxxxxxxxxxxx
            x  Element         Atom        Fractional coordinates of atoms  x
            x                 Number           u          v          w      x
            x---------------------------------------------------------------x
            x  O                 1         0.556237   0.943763   0.250000   x
            x  O                 2         0.943763   0.250000   0.556237   x
            x  O                 3         0.250000   0.556237   0.943763   x
            x  O                 4         0.056237   0.750000   0.443763   x
            x  O                 5         0.750000   0.443763   0.056237   x
            x  O                 6         0.443763   0.056237   0.750000   x
            x  Al                1         0.147914   0.147914   0.147914   x
            x  Al                2         0.647914   0.647914   0.647914   x
            x  Al                3         0.852086   0.852086   0.852086   x
            x  Al                4         0.352086   0.352086   0.352086   x
            xxxxxxxxxxxxxxxxxxxxxxxxxxxxxxxxxxxxxxxxxxxxxxxxxxxxxxxxxxxxxxxxx


------------------------------------------------------------------------ <-- SCF
SCF loop      Energy           Fermi           Energy gain       Timer   <-- SCF
                               energy          per atom          (sec)   <-- SCF
------------------------------------------------------------------------ <-- SCF
Initial  -3.08936717E+003  0.00000000E+000                       353.43  <-- SCF
      1  -3.08936768E+003  5.54106237E+000   5.12476192E-005     359.60  <-- SCF
      2  -3.08936768E+003  5.54106236E+000   1.58918529E-007     363.19  <-- SCF
      3  -3.08936757E+003  5.52632801E+000  -1.11589657E-005     369.59  <-- SCF
      4  -3.08936748E+003  5.53415410E+000  -9.16341692E-006     373.21  <-- SCF
      5  -3.08936749E+003  5.53637811E+000   8.45442226E-007     376.72  <-- SCF
------------------------------------------------------------------------ <-- SCF
 
Final energy, E             =  -3089.367489059     eV
Final free energy (E-TS)    =  -3089.367489059     eV
(energies not corrected for finite basis set)
 
NB est. 0K energy (E-0.5TS)      =  -3089.367489059     eV
 

 ************************************** Forces **************************************
 *                                                                                  *
 *                           Cartesian components (eV/A)                            *
 * -------------------------------------------------------------------------------- *
 *                         x                    y                    z              *
 *                                                                                  *
 * O               1     -0.04154             -0.00001              0.00000         *
 * O               2      0.02080              0.03597             -0.00001         *
 * O               3      0.02075             -0.03594             -0.00000         *
 * O               4     -0.02079             -0.03601              0.00001         *
 * O               5     -0.02077              0.03600              0.00002         *
 * O               6      0.04157             -0.00000             -0.00001         *
 * Al              1     -0.00001              0.00000              0.00658         *
 * Al              2     -0.00001             -0.00000              0.00659         *
 * Al              3      0.00000             -0.00000             -0.00659         *
 * Al              4     -0.00000             -0.00000             -0.00659         *
 *                                                                                  *
 ************************************************************************************

 ***************** Stress Tensor *****************
 *                                               *
 *          Cartesian components (GPa)           *
 * --------------------------------------------- *
 *             x             y             z     *
 *                                               *
 *  x     -0.270250     -0.000008     -0.000033  *
 *  y     -0.000008     -0.270296      0.000027  *
 *  z     -0.000033      0.000027     -0.158257  *
 *                                               *
 *  Pressure:    0.2329                          *
 *                                               *
 *************************************************
  
 +------------+-------------+-------------+-----------------+ <-- min LBFGS
 |    Step    |   lambda    |   F.delta'  |    enthalpy     | <-- min LBFGS
 +------------+-------------+-------------+-----------------+ <-- min LBFGS
 |  previous  |    0.000000 |    0.006387 |    -3089.367427 | <-- min LBFGS
 | trial step |    1.000000 |   -0.001590 |    -3089.367472 | <-- min LBFGS
 +------------+-------------+-------------+-----------------+ <-- min LBFGS
  
 LBFGS: finished iteration     3 with enthalpy= -3.08936747E+003 eV
  
 +-----------+-----------------+-----------------+------------+-----+ <-- LBFGS
 | Parameter |      value      |    tolerance    |    units   | OK? | <-- LBFGS
 +-----------+-----------------+-----------------+------------+-----+ <-- LBFGS
 |  dE/ion   |   4.553887E-006 |   1.000000E-005 |         eV | Yes | <-- LBFGS
 |  |F|max   |   4.158092E-002 |   1.000000E-002 |       eV/A | No  | <-- LBFGS
 |  |dR|max  |   1.088119E-004 |   1.000000E-003 |          A | Yes | <-- LBFGS
 |   Smax    |   2.702958E-001 |   1.000000E-001 |        GPa | No  | <-- LBFGS
 +-----------+-----------------+-----------------+------------+-----+ <-- LBFGS
  

================================================================================
 Starting LBFGS iteration          4 ...
================================================================================
  
 +------------+-------------+-------------+-----------------+ <-- min LBFGS
 |    Step    |   lambda    |   F.delta'  |    enthalpy     | <-- min LBFGS
 +------------+-------------+-------------+-----------------+ <-- min LBFGS
 |  previous  |    0.000000 |    0.007493 |    -3089.367472 | <-- min LBFGS
 +------------+-------------+-------------+-----------------+ <-- min LBFGS
  

--------------------------------------------------------------------------------
 LBFGS: starting iteration         4 with trial guess (lambda=  1.000000)
--------------------------------------------------------------------------------

                           -------------------------------
                                      Unit Cell
                           -------------------------------
        Real Lattice(A)              Reciprocal Lattice(1/A)
     2.3863558     1.3777626     4.3361823        1.316481203   0.760070868   0.483004474
    -2.3863559     1.3777626     4.3361823       -1.316481191   0.760070863   0.483004450
    -0.0000000    -2.7555266     4.3361824        0.000000001  -1.520141700   0.483004238

                       Lattice parameters(A)       Cell Angles
                    a =      5.137645          alpha =   55.353702
                    b =      5.137646          beta  =   55.353703
                    c =      5.137646          gamma =   55.353709

                Current cell volume =            85.539861 A**3
                            density =             2.383948 amu/A**3
                                    =             3.958638 g/cm^3

                           -------------------------------
                                     Cell Contents
                           -------------------------------

            xxxxxxxxxxxxxxxxxxxxxxxxxxxxxxxxxxxxxxxxxxxxxxxxxxxxxxxxxxxxxxxxx
            x  Element         Atom        Fractional coordinates of atoms  x
            x                 Number           u          v          w      x
            x---------------------------------------------------------------x
            x  O                 1         0.556164   0.943836   0.250000   x
            x  O                 2         0.943836   0.250000   0.556164   x
            x  O                 3         0.250000   0.556164   0.943836   x
            x  O                 4         0.056164   0.750000   0.443835   x
            x  O                 5         0.750000   0.443836   0.056164   x
            x  O                 6         0.443836   0.056164   0.750000   x
            x  Al                1         0.147921   0.147921   0.147920   x
            x  Al                2         0.647921   0.647921   0.647920   x
            x  Al                3         0.852080   0.852080   0.852079   x
            x  Al                4         0.352080   0.352080   0.352079   x
            xxxxxxxxxxxxxxxxxxxxxxxxxxxxxxxxxxxxxxxxxxxxxxxxxxxxxxxxxxxxxxxxx


------------------------------------------------------------------------ <-- SCF
SCF loop      Energy           Fermi           Energy gain       Timer   <-- SCF
                               energy          per atom          (sec)   <-- SCF
------------------------------------------------------------------------ <-- SCF
Initial  -3.08936617E+003  0.00000000E+000                       397.09  <-- SCF
      1  -3.08936800E+003  5.53489152E+000   1.82514075E-004     402.96  <-- SCF
      2  -3.08936802E+003  5.53489146E+000   2.40022590E-006     407.12  <-- SCF
      3  -3.08936758E+003  5.53208989E+000  -4.41306868E-005     412.65  <-- SCF
      4  -3.08936757E+003  5.53625100E+000  -8.13465202E-007     416.46  <-- SCF
      5  -3.08936757E+003  5.53580197E+000   8.89657669E-008     419.97  <-- SCF
------------------------------------------------------------------------ <-- SCF
 
Final energy, E             =  -3089.367574859     eV
Final free energy (E-TS)    =  -3089.367574859     eV
(energies not corrected for finite basis set)
 
NB est. 0K energy (E-0.5TS)      =  -3089.367574859     eV
 

 ************************************** Forces **************************************
 *                                                                                  *
 *                           Cartesian components (eV/A)                            *
 * -------------------------------------------------------------------------------- *
 *                         x                    y                    z              *
 *                                                                                  *
 * O               1     -0.04759             -0.00001             -0.00000         *
 * O               2      0.02381              0.04122             -0.00001         *
 * O               3      0.02379             -0.04121             -0.00001         *
 * O               4     -0.02381             -0.04123              0.00000         *
 * O               5     -0.02380              0.04123              0.00002         *
 * O               6      0.04760              0.00000              0.00001         *
 * Al              1     -0.00000              0.00001              0.00136         *
 * Al              2     -0.00000              0.00000              0.00137         *
 * Al              3      0.00000             -0.00001             -0.00136         *
 * Al              4      0.00000              0.00000             -0.00137         *
 *                                                                                  *
 ************************************************************************************

[...]
 *  y     -0.000066      0.053754     -0.000025  *
 *  z     -0.000030     -0.000025      0.226386  *
 *                                               *
 *  Pressure:   -0.1113                          *
 *                                               *
 *************************************************
  
 +------------+-------------+-------------+-----------------+ <-- min LBFGS
 |    Step    |   lambda    |   F.delta'  |    enthalpy     | <-- min LBFGS
 +------------+-------------+-------------+-----------------+ <-- min LBFGS
 |  previous  |    0.000000 |    0.004567 |    -3089.367696 | <-- min LBFGS
 | trial step |    1.000000 |   -0.004114 |    -3089.367628 | <-- min LBFGS
 |  line step |    0.526127 |   -0.004512 |    -3089.367696 | <-- min LBFGS
 +------------+-------------+-------------+-----------------+ <-- min LBFGS
  

--------------------------------------------------------------------------------
 LBFGS: improving iteration        10 with quad minimization (lambda= -0.023579)
--------------------------------------------------------------------------------

                           -------------------------------
                                      Unit Cell
                           -------------------------------
        Real Lattice(A)              Reciprocal Lattice(1/A)
     2.3857777     1.3774296     4.3367841        1.316800013   0.760254857   0.482937495
    -2.3857790     1.3774301     4.3367847       -1.316799742   0.760254590   0.482937177
    -0.0000002    -2.7548595     4.3367841       -0.000000096  -1.520509577   0.482937364

                       Lattice parameters(A)       Cell Angles
                    a =      5.137796          alpha =   55.337405
                    b =      5.137797          beta  =   55.337401
                    c =      5.137796          gamma =   55.337401

                Current cell volume =            85.510340 A**3
                            density =             2.384771 amu/A**3
                                    =             3.960005 g/cm^3

                           -------------------------------
                                     Cell Contents
                           -------------------------------

            xxxxxxxxxxxxxxxxxxxxxxxxxxxxxxxxxxxxxxxxxxxxxxxxxxxxxxxxxxxxxxxxx
            x  Element         Atom        Fractional coordinates of atoms  x
            x                 Number           u          v          w      x
            x---------------------------------------------------------------x
            x  O                 1         0.555797   0.944203   0.250000   x
            x  O                 2         0.944203   0.250000   0.555797   x
            x  O                 3         0.250000   0.555797   0.944203   x
            x  O                 4         0.055797   0.750000   0.444203   x
            x  O                 5         0.750000   0.444203   0.055797   x
            x  O                 6         0.444203   0.055797   0.750000   x
            x  Al                1         0.147929   0.147929   0.147928   x
            x  Al                2         0.647929   0.647929   0.647929   x
            x  Al                3         0.852071   0.852071   0.852071   x
            x  Al                4         0.352071   0.352071   0.352071   x
            xxxxxxxxxxxxxxxxxxxxxxxxxxxxxxxxxxxxxxxxxxxxxxxxxxxxxxxxxxxxxxxxx


------------------------------------------------------------------------ <-- SCF
SCF loop      Energy           Fermi           Energy gain       Timer   <-- SCF
                               energy          per atom          (sec)   <-- SCF
------------------------------------------------------------------------ <-- SCF
Initial  -3.08936619E+003  0.00000000E+000                      1039.28  <-- SCF
      1  -3.08936843E+003  5.54425107E+000   2.23948712E-004    1045.51  <-- SCF
      2  -3.08936843E+003  5.54425100E+000   3.91801338E-007    1049.05  <-- SCF
      3  -3.08936789E+003  5.52056544E+000  -5.44541704E-005    1055.77  <-- SCF
      4  -3.08936771E+003  5.53391983E+000  -1.77708225E-005    1061.81  <-- SCF
      5  -3.08936771E+003  5.53243979E+000  -5.12520811E-007    1065.18  <-- SCF
      6  -3.08936771E+003  5.53174335E+000   2.91428047E-008    1068.55  <-- SCF
------------------------------------------------------------------------ <-- SCF
 
Final energy, E             =  -3089.367706859     eV
Final free energy (E-TS)    =  -3089.367706859     eV
(energies not corrected for finite basis set)
 
NB est. 0K energy (E-0.5TS)      =  -3089.367706859     eV
 

 ************************************** Forces **************************************
 *                                                                                  *
 *                           Cartesian components (eV/A)                            *
 * -------------------------------------------------------------------------------- *
 *                         x                    y                    z              *
 *                                                                                  *
 * O               1      0.00452             -0.00001              0.00001         *
 * O               2     -0.00225             -0.00389              0.00001         *
 * O               3     -0.00225              0.00390              0.00000         *
 * O               4      0.00226              0.00390             -0.00000         *
 * O               5      0.00226             -0.00391             -0.00000         *
 * O               6     -0.00453             -0.00000             -0.00000         *
 * Al              1      0.00000             -0.00001             -0.00451         *
 * Al              2     -0.00000              0.00001             -0.00451         *
 * Al              3     -0.00000              0.00000              0.00451         *
 * Al              4     -0.00000             -0.00001              0.00451         *
 *                                                                                  *
 ************************************************************************************

 ***************** Stress Tensor *****************
 *                                               *
 *          Cartesian components (GPa)           *
 * --------------------------------------------- *
 *             x             y             z     *
 *                                               *
 *  x     -0.080329     -0.000033     -0.000039  *
 *  y     -0.000033     -0.080299     -0.000002  *
 *  z     -0.000039     -0.000002      0.024447  *
 *                                               *
 *  Pressure:    0.0454                          *
 *                                               *
 *************************************************
  
 +------------+-------------+-------------+-----------------+ <-- min LBFGS
 |    Step    |   lambda    |   F.delta'  |    enthalpy     | <-- min LBFGS
 +------------+-------------+-------------+-----------------+ <-- min LBFGS
 |  previous  |    0.000000 |    0.004567 |    -3089.367696 | <-- min LBFGS
 | trial step |    1.000000 |   -0.004114 |    -3089.367628 | <-- min LBFGS
 |  line step |    0.526127 |   -0.004512 |    -3089.367696 | <-- min LBFGS
 |  quad step |   -0.023579 |    0.001505 |    -3089.367695 | <-- min LBFGS
 +------------+-------------+-------------+-----------------+ <-- min LBFGS
  
 LBFGS: finished iteration    10 with enthalpy= -3.08936769E+003 eV
  
 +-----------+-----------------+-----------------+------------+-----+ <-- LBFGS
 | Parameter |      value      |    tolerance    |    units   | OK? | <-- LBFGS
 +-----------+-----------------+-----------------+------------+-----+ <-- LBFGS
 |  dE/ion   |   1.118769E-007 |   1.000000E-005 |         eV | Yes | <-- LBFGS
 |  |F|max   |   4.529156E-003 |   1.000000E-002 |       eV/A | Yes | <-- LBFGS
 |  |dR|max  |   1.522698E-005 |   1.000000E-003 |          A | Yes | <-- LBFGS
 |   Smax    |   8.032923E-002 |   1.000000E-001 |        GPa | Yes | <-- LBFGS
 +-----------+-----------------+-----------------+------------+-----+ <-- LBFGS
  
 LBFGS: Geometry optimization completed successfully.

================================================================================
 LBFGS: Final Configuration:
================================================================================

                           -------------------------------
                                      Unit Cell
                           -------------------------------
        Real Lattice(A)              Reciprocal Lattice(1/A)
     2.3857777     1.3774296     4.3367841        1.316800013   0.760254857   0.482937495
    -2.3857790     1.3774301     4.3367847       -1.316799742   0.760254590   0.482937177
    -0.0000002    -2.7548595     4.3367841       -0.000000096  -1.520509577   0.482937364

                       Lattice parameters(A)       Cell Angles
                    a =      5.137796          alpha =   55.337405
                    b =      5.137797          beta  =   55.337401
                    c =      5.137796          gamma =   55.337401

                Current cell volume =            85.510340 A**3
                            density =             2.384771 amu/A**3
                                    =             3.960005 g/cm^3

                           -------------------------------
                                     Cell Contents
                           -------------------------------

            xxxxxxxxxxxxxxxxxxxxxxxxxxxxxxxxxxxxxxxxxxxxxxxxxxxxxxxxxxxxxxxxx
            x  Element         Atom        Fractional coordinates of atoms  x
            x                 Number           u          v          w      x
            x---------------------------------------------------------------x
            x  O                 1         0.555797   0.944203   0.250000   x
            x  O                 2         0.944203   0.250000   0.555797   x
            x  O                 3         0.250000   0.555797   0.944203   x
            x  O                 4         0.055797   0.750000   0.444203   x
            x  O                 5         0.750000   0.444203   0.055797   x
            x  O                 6         0.444203   0.055797   0.750000   x
            x  Al                1         0.147929   0.147929   0.147928   x
            x  Al                2         0.647929   0.647929   0.647929   x
            x  Al                3         0.852071   0.852071   0.852071   x
            x  Al                4         0.352071   0.352071   0.352071   x
            xxxxxxxxxxxxxxxxxxxxxxxxxxxxxxxxxxxxxxxxxxxxxxxxxxxxxxxxxxxxxxxxx


 LBFGS: Final Enthalpy     = -3.08936769E+003 eV
 LBFGS: Final <frequency>  =    1289.64138 cm-1
 LBFGS: Final bulk modulus =     122.25723 GPa

 ************************************** Forces **************************************
 *                                                                                  *
 *                           Cartesian components (eV/A)                            *
 * -------------------------------------------------------------------------------- *
 *                         x                    y                    z              *
 *                                                                                  *
 * O               1      0.00452             -0.00001              0.00001         *
 * O               2     -0.00225             -0.00389              0.00001         *
 * O               3     -0.00225              0.00390              0.00000         *
 * O               4      0.00226              0.00390             -0.00000         *
 * O               5      0.00226             -0.00391             -0.00000         *
 * O               6     -0.00453             -0.00000             -0.00000         *
 * Al              1      0.00000             -0.00001             -0.00451         *
 * Al              2     -0.00000              0.00001             -0.00451         *
 * Al              3     -0.00000              0.00000              0.00451         *
 * Al              4     -0.00000             -0.00001              0.00451         *
 *                                                                                  *
 ************************************************************************************

 ***************** Stress Tensor *****************
 *                                               *
 *          Cartesian components (GPa)           *
 * --------------------------------------------- *
 *             x             y             z     *
 *                                               *
 *  x     -0.080329     -0.000033     -0.000039  *
 *  y     -0.000033     -0.080299     -0.000002  *
 *  z     -0.000039     -0.000002      0.024447  *
 *                                               *
 *  Pressure:    0.0454                          *
 *                                               *
 *************************************************

 Pseudo atomic calculation performed for O 2s2 2p4

 Converged in 14 iterations to a total energy of -431.1291 eV

 Pseudo atomic calculation performed for Al 3s2 3p1

 Converged in 11 iterations to a total energy of -105.9171 eV
Charge spilling parameter for spin component 1 = 0.78%

            Orbital Populations       
     Ion    Atom   Orbital             Charge
  -------------------------------------------
      O     1      S                    1.833
      O     1      Px                   1.720
      O     1      Py                   1.754
      O     1      Pz                   1.743
      O     2      S                    1.833
      O     2      Px                   1.745
      O     2      Py                   1.728
      O     2      Pz                   1.743
      O     3      S                    1.833
      O     3      Px                   1.745
      O     3      Py                   1.728
      O     3      Pz                   1.743
      O     4      S                    1.833
      O     4      Px                   1.745
      O     4      Py                   1.728
      O     4      Pz                   1.743
      O     5      S                    1.833
      O     5      Px                   1.745
      O     5      Py                   1.728
      O     5      Pz                   1.743
      O     6      S                    1.833
      O     6      Px                   1.720
      O     6      Py                   1.754
      O     6      Pz                   1.743
     Al     1      S                    0.517
     Al     1      Px                   0.306
     Al     1      Py                   0.306
     Al     1      Pz                   0.298
     Al     2      S                    0.517
     Al     2      Px                   0.306
     Al     2      Py                   0.306
     Al     2      Pz                   0.298
     Al     3      S                    0.518
     Al     3      Px                   0.306
     Al     3      Py                   0.306
     Al     3      Pz                   0.298
     Al     4      S                    0.518
     Al     4      Px                   0.306
     Al     4      Py                   0.306
     Al     4      Pz                   0.298
  -------------------------------------------
                           Total:      48.000
  -------------------------------------------

     Atomic Populations (Mulliken)
     -----------------------------
Species          Ion     s      p      d      f     Total  Charge (e)
=====================================================================
  O               1     1.83   5.22   0.00   0.00   7.05    -1.05
  O               2     1.83   5.22   0.00   0.00   7.05    -1.05
  O               3     1.83   5.22   0.00   0.00   7.05    -1.05
  O               4     1.83   5.22   0.00   0.00   7.05    -1.05
  O               5     1.83   5.22   0.00   0.00   7.05    -1.05
  O               6     1.83   5.22   0.00   0.00   7.05    -1.05
  Al              1     0.52   0.91   0.00   0.00   1.43     1.57
  Al              2     0.52   0.91   0.00   0.00   1.43     1.57
  Al              3     0.52   0.91   0.00   0.00   1.43     1.57
  Al              4     0.52   0.91   0.00   0.00   1.43     1.57
=====================================================================

                 Bond                   Population      Length (A)
======================================================================
               O 2 -- Al 3                   0.36        1.86072
               O 3 -- Al 3                   0.36        1.86072
               O 5 -- Al 1                   0.36        1.86072
               O 2 -- Al 2                   0.36        1.86072
               O 1 -- Al 3                   0.36        1.86072
               O 4 -- Al 1                   0.36        1.86072
               O 3 -- Al 2                   0.36        1.86072
               O 4 -- Al 4                   0.36        1.86072
               O 5 -- Al 4                   0.36        1.86072
               O 6 -- Al 1                   0.36        1.86072
               O 6 -- Al 4                   0.36        1.86072
               O 1 -- Al 2                   0.36        1.86072
               O 6 -- Al 2                   0.26        1.97297
               O 1 -- Al 1                   0.26        1.97297
               O 6 -- Al 3                   0.26        1.97297
               O 1 -- Al 4                   0.26        1.97297
               O 3 -- Al 4                   0.26        1.97297
               O 5 -- Al 2                   0.26        1.97297
               O 5 -- Al 3                   0.26        1.97297
               O 3 -- Al 1                   0.26        1.97297
               O 4 -- Al 2                   0.26        1.97297
               O 4 -- Al 3                   0.26        1.97297
               O 2 -- Al 4                   0.26        1.97297
               O 2 -- Al 1                   0.26        1.97297
               O 4 -- O 6                   -0.17        2.52728
               O 5 -- O 6                   -0.17        2.52728
               O 1 -- O 3                   -0.17        2.52728
               O 1 -- O 2                   -0.17        2.52729
               O 4 -- O 5                   -0.17        2.52729
               O 2 -- O 3                   -0.17        2.52729
               O 3 -- O 5                   -0.16        2.62350
               O 1 -- O 6                   -0.16        2.62350
               O 2 -- O 4                   -0.16        2.62350
              Al 1 -- Al 4                  -0.52        2.65597
              Al 2 -- Al 3                  -0.52        2.65597
               O 2 -- O 6                   -0.10        2.73092
               O 1 -- O 4                   -0.10        2.73092
               O 2 -- O 5                   -0.10        2.73092
               O 3 -- O 4                   -0.10        2.73092
               O 1 -- O 5                   -0.10        2.73092
               O 3 -- O 6                   -0.10        2.73092
              Al 2 -- Al 4                  -0.65        2.79767
              Al 1 -- Al 3                  -0.65        2.79767
======================================================================


Writing analysis data to al2o3_xc-PBESOL_c-0900_k-5x5x5_geom.castep_bin

Writing model to al2o3_xc-PBESOL_c-0900_k-5x5x5_geom.check
 
 A BibTeX formatted list of references used in this run has been written to 
 al2o3_xc-PBESOL_c-0900_k-5x5x5_geom.bib
 
Initialisation time =      7.34 s
Calculation time    =   1084.19 s
Finalisation time   =      0.34 s
Total time          =   1091.86 s
Peak Memory Use     = 684220 kB
  
Overall parallel efficiency rating: Excellent (96%)                             
  
Data was distributed by:-
k-point (9-way); efficiency rating: Excellent (97%)                             
