 +-------------------------------------------------+
 |                                                 |
 |      CCC   AA    SSS  TTTTT  EEEEE  PPPP        |
 |     C     A  A  S       T    E      P   P       |
 |     C     AAAA   SS     T    EEE    PPPP        |
 |     C     A  A     S    T    E      P           |
 |      CCC  A  A  SSS     T    EEEEE  P           |
 |                                                 |
 +-------------------------------------------------+
 |                                                 |
 | Welcome to Academic Release CASTEP version 19.11|          
 | Ab Initio Total Energy Program                  |
 |                                                 |
 | Authors:                                        |
 | M. Segall, M. Probert, C. Pickard, P. Hasnip,   |
 | S. Clark, K. Refson, J. R. Yates, M. Payne      |
 |                                                 |
 | Contributors:                                   |
 | P. Lindan, P. Haynes, J. White, V. Milman,      |
 | N. Govind, M. Gibson, P. Tulip, V. Cocula,      |
 | B. Montanari, D. Quigley, M. Glover,            |
 | L. Bernasconi, A. Perlov, M. Plummer,           |
 | E. McNellis, J. Meyer, J. Gale, D. Jochym       |
 | J. Aarons, B. Walker, R. Gillen, D. Jones       |
 | T. Green, I. J. Bush, C. J. Armstrong,          |
 | E. J. Higgins, E. L. Brown, M. S. McFly,        |
 | J. Wilkins, B-C. Shih, P. J. P. Byrne           |
 |                                                 |
 | Copyright (c) 2000 - 2018                       |
 |                                                 |
 |     Distributed under the terms of an           |
 |     Agreement between the United Kingdom        |
 |     Car-Parrinello (UKCP) Consortium,           |
 |     Daresbury Laboratory and Accelrys, Inc.     |
 |                                                 |
 | Please cite                                     |
 |                                                 |
 |     "First principles methods using CASTEP"     |
 |                                                 |
 |         Zeitschrift fuer Kristallographie       |
 |           220(5-6) pp. 567-570 (2005)           |
 |                                                 |
 | S. J. Clark, M. D. Segall, C. J. Pickard,       |
 | P. J. Hasnip, M. J. Probert, K. Refson,         |
 | M. C. Payne                                     |
 |                                                 |
 |       in all publications arising from          |
 |              your use of CASTEP                 |
 |                                                 |
 +-------------------------------------------------+
 |                                                 |
 |              http://www.castep.org              |
 |                                                 |
 +-------------------------------------------------+



 Compiled for linux_x86_64_gfortran7.0 on Fri, 31 Jan 2020 20:20:28 +0100
 from code version e1fe0d666396+ Castep191_branch Thu, 24 Oct 2019 13:54:03 +0100
 Compiler: GNU Fortran 7.4.0; Optimisation: fast
 MATHLIBS: default (LAPACK version 3.7.1)
 FFT Lib : default
 Fundamental constants values: CODATA 2014

 Run started: Sat, 06 Nov 2021 00:53:13 +0100

 Atomic calculation performed for O: 1s2 2s2 2p4

 Converged in 57 iterations to an ae energy of -2034.019 eV

   ============================================================                
   | Pseudopotential Report - Date of generation  6-11-2021   |                
   ------------------------------------------------------------                
   | Element: O Ionic charge:  6.00 Level of theory: PBESOL   |                
   | Atomic Solver: Koelling-Harmon                           |                
   |                                                          |                
   |               Reference Electronic Structure             |                
   |         Orbital         Occupation         Energy        |                
   |            2s              2.000           -0.875        |                
   |            2p              4.000           -0.330        |                
   |                                                          |                
   |                 Pseudopotential Definition               |                
   |        Beta     l      e      Rc     scheme   norm       |                
   |          1      0   -0.875   1.100     qc      0         |                
   |          2      0    0.250   1.100     qc      0         |                
   |          3      1   -0.330   1.100     qc      0         |                
   |          4      1    0.250   1.100     qc      0         |                
   |         loc     2    0.000   1.100     pn      0         |                
   |                                                          |                
   | Augmentation charge Rinner = 0.769                       |                
   | Partial core correction Rc = 0.769                       |                
   ------------------------------------------------------------                
   | "2|1.1|17|20|23|20:21(qc=8)"                             |                
   ------------------------------------------------------------                
   |      Author: Chris J. Pickard, Cambridge University      |                
   ============================================================                

 Atomic calculation performed for Al: 1s2 2s2 2p6 3s2 3p1

 Converged in 55 iterations to an ae energy of -6590.489 eV

   ============================================================                
   | Pseudopotential Report - Date of generation  6-11-2021   |                
   ------------------------------------------------------------                
   | Element: Al Ionic charge:  3.00 Level of theory: PBESOL  |                
   | Atomic Solver: Koelling-Harmon                           |                
   |                                                          |                
   |               Reference Electronic Structure             |                
   |         Orbital         Occupation         Energy        |                
   |            3s              2.000           -0.284        |                
   |            3p              1.000           -0.099        |                
   |                                                          |                
   |                 Pseudopotential Definition               |                
   |        Beta     l      e      Rc     scheme   norm       |                
   |          1      0   -0.284   2.192     qc      0         |                
   |          2      0    0.250   2.192     qc      0         |                
   |          3      1   -0.099   2.192     qc      0         |                
   |          4      1    0.250   2.192     qc      0         |                
   |          5      2    0.000   2.000     qc      0         |                
   |          6      2    0.250   2.000     qc      0         |                
   |         loc     3    0.000   2.192     pn      0         |                
   |                                                          |                
   | Augmentation charge Rinner = 1.398                       |                
   | Partial core correction Rc = 1.398                       |                
   ------------------------------------------------------------                
   | "3|2.2|2.2|1.4|4|5|5|30:31:32U2U2"                       |                
   ------------------------------------------------------------                
   |      Author: Chris J. Pickard, Cambridge University      |                
   ============================================================                

 Pseudo atomic calculation performed for O 2s2 2p4

 Converged in 20 iterations to a total energy of -389.3106 eV

 Pseudo atomic calculation performed for Al 3s2 3p1

 Converged in 11 iterations to a total energy of -105.9118 eV
 Calculation parallelised over 9 processes.
 Data is distributed by k-point(9-way)

 ************************************ Title ************************************
 

 ***************************** General Parameters ******************************
  
 output verbosity                               : normal  (1)
 write checkpoint data to                       : al2o3_xc-PBESOL_c-0200_k-5x5x5_geom.check
 type of calculation                            : geometry optimization
 stress calculation                             : off
 density difference calculation                 : off
 electron localisation func (ELF) calculation   : off
 Hirshfeld analysis                             : off
 unlimited duration calculation
 timing information                             : on
 memory usage estimate                          : on
 write extra output files                       : on
 write final potential to formatted file        : off
 write final density to formatted file          : off
 write structure in CIF formatted file          : on
 write structure in CELL formatted file         : on
 write BibTeX reference list                    : on
 write OTFG pseudopotential files               : on
 write electrostatic potential file             : on
 write bands file                               : on
 checkpoint writing                             : both castep_bin and check files
  
 output         length unit                     : A
 output           mass unit                     : amu
 output           time unit                     : ps
 output         charge unit                     : e
 output           spin unit                     : hbar/2
 output         energy unit                     : eV
 output          force unit                     : eV/A
 output       velocity unit                     : A/ps
 output       pressure unit                     : GPa
 output     inv_length unit                     : 1/A
 output      frequency unit                     : cm-1
 output force constant unit                     : eV/A**2
 output         volume unit                     : A**3
 output   IR intensity unit                     : (D/A)**2/amu
 output         dipole unit                     : D
 output         efield unit                     : eV/A/e
 output        entropy unit                     : J/mol/K
  
 wavefunctions paging                           : none
 random number generator seed                   : randomised (5314045)
 data distribution                              : optimal for this architecture
 optimization strategy                          : maximize speed(+++)

 *********************** Exchange-Correlation Parameters ***********************
  
 using functional                               : PBE for solids (2008)
 relativistic treatment                         : Koelling-Harmon
 DFT+D: Semi-empirical dispersion correction    : off

 ************************* Pseudopotential Parameters **************************
  
 pseudopotential representation                 : reciprocal space
 <beta|phi> representation                      : reciprocal space
 spin-orbit coupling                            : off

 **************************** Basis Set Parameters *****************************
  
 plane wave basis set cut-off                   :   200.0000   eV
 size of standard grid                          :     1.7500
 size of   fine   gmax                          :    12.6792   1/A
 finite basis set correction                    : automatic
 number of sample energies                      :          3
           sample  spacing                      :     5.0000   eV

 **************************** Electronic Parameters ****************************
  
 number of  electrons                           :  48.00    
 net charge of system                           :  0.000    
 treating system as non-spin-polarized
 number of bands                                :         29

 ********************* Electronic Minimization Parameters **********************
  
 Method: Treating system as metallic with density mixing treatment of electrons,
         and number of  SD  steps               :          1
         and number of  CG  steps               :          4
  
 total energy / atom convergence tol.           : 0.1000E-04   eV
 eigen-energy convergence tolerance             : 0.1000E-05   eV
 max force / atom convergence tol.              : ignored
 convergence tolerance window                   :          3   cycles
 max. number of SCF cycles                      :         30
 number of fixed-spin iterations                :         10
 smearing scheme                                : Gaussian
 smearing width                                 : 0.2000       eV
 Fermi energy convergence tolerance             : 0.2721E-13   eV
 periodic dipole correction                     : NONE

 ************************** Density Mixing Parameters **************************
  
 density-mixing scheme                          : Broyden
 max. length of mixing history                  :         20
 charge density mixing amplitude                : 0.8000    
 cut-off energy for mixing                      :  200.0       eV

 *********************** Population Analysis Parameters ************************
  
 Population analysis with cutoff                :  3.000       A
 Population analysis output                     : summary and pdos components

 ********************** Geometry Optimization Parameters ***********************
  
 optimization method                            : LBFGS
 max. no. of LBFGS updates                      : unbounded
 variable cell method                           : fixed basis quality
 max. number of steps                           :        150
 estimated bulk modulus                         :  500.0       GPa
 estimated <frequency>                          :  1668.       cm-1
 geom line minimiser                            : on
 with line minimiser tolerance                  :     0.4000
 total energy convergence tolerance             : 0.1000E-04   eV/atom
        max ionic |force| tolerance             : 0.1000E-01   eV/A
 max ionic |displacement| tolerance             : 0.1000E-02   A
   max |stress component| tolerance             : 0.1000       GPa
 convergence tolerance window                   :          2   steps
 backup results every                           :          5   steps
 write geom trajectory file                     : on

 *******************************************************************************
  

                           -------------------------------
                                      Unit Cell
                           -------------------------------
        Real Lattice(A)                      Reciprocal Lattice(1/A)
     2.3801000     1.3741510     4.3310000        1.319941454   0.762068577   0.483582396
    -2.3801000     1.3741510     4.3310000       -1.319941454   0.762068577   0.483582396
     0.0000000    -2.7483030     4.3310000       -0.000000000  -1.524137154   0.483582220

                       Lattice parameters(A)       Cell Angles
                    a =      5.129398          alpha =   55.292535
                    b =      5.129398          beta  =   55.292535
                    c =      5.129399          gamma =   55.292537

                       Current cell volume =            84.990269       A**3
                                   density =             2.399364   AMU/A**3
                                           =             3.984237     g/cm^3

                           -------------------------------
                                     Cell Contents
                           -------------------------------
                         Total number of ions in cell =   10
                      Total number of species in cell =    2
                        Max number of any one species =    6

            xxxxxxxxxxxxxxxxxxxxxxxxxxxxxxxxxxxxxxxxxxxxxxxxxxxxxxxxxxxx
            x  Element    Atom        Fractional coordinates of atoms  x
            x            Number           u          v          w      x
            x----------------------------------------------------------x
            x  O            1         0.556260   0.943740   0.250000   x 
            x  O            2         0.943740   0.250000   0.556260   x 
            x  O            3         0.250000   0.556260   0.943740   x 
            x  O            4         0.056260   0.750000   0.443740   x 
            x  O            5         0.750000   0.443740   0.056260   x 
            x  O            6         0.443740   0.056260   0.750000   x 
            x  Al           1         0.147900   0.147900   0.147900   x 
            x  Al           2         0.647900   0.647900   0.647900   x 
            x  Al           3         0.852100   0.852100   0.852100   x 
            x  Al           4         0.352100   0.352100   0.352100   x 
            xxxxxxxxxxxxxxxxxxxxxxxxxxxxxxxxxxxxxxxxxxxxxxxxxxxxxxxxxxxx


                         No user defined ionic velocities

                           -------------------------------
                                   Details of Species
                           -------------------------------

                               Mass of species in AMU
                                    O   15.9994000
                                    Al   26.9815400

                          Electric Quadrupole Moment (Barn)
                                    O   -0.0255800 Isotope 17
                                    Al    0.1466000 Isotope 27

                          Files used for pseudopotentials:
                                    O 2|1.1|17|20|23|20:21(qc=8)
                                    Al 3|2.2|2.2|1.4|4|5|5|30:31:32U2U2

                           -------------------------------
                              k-Points For BZ Sampling
                           -------------------------------
                       MP grid size for SCF calculation is  5  5  5
                            with an offset of   0.000  0.000  0.000
                       Number of kpoints used =            63

                           -------------------------------
                               Symmetry and Constraints
                           -------------------------------

                      Maximum deviation from symmetry =  0.00000         ANG

                      Number of symmetry operations   =           1
                      Number of ionic constraints     =           3
                      Point group of crystal =     1: C1, 1, 1
                      Space group of crystal =   167: R-3c, -R 3 2"c

             Set iprint > 1 for details on symmetry rotations/translations

                         Centre of mass is constrained
             Set iprint > 1 for details of linear ionic constraints

                         Number of cell constraints= 0
                         Cell constraints are:  1 2 3 4 5 6

                         External pressure/stress (GPa)
                          0.00000   0.00000   0.00000
                                    0.00000   0.00000
                                              0.00000
  
+---------------- MEMORY AND SCRATCH DISK ESTIMATES PER PROCESS --------------+
|                                                     Memory          Disk    |
| Baseline code, static data and system overhead      196.0 MB         0.0 MB |
| BLAS internal memory storage                          0.0 MB         0.0 MB |
| Model and support data                               54.2 MB         0.0 MB |
| Electronic energy minimisation requirements           8.4 MB         0.0 MB |
| Force calculation requirements                        2.0 MB         0.0 MB |
|                                               ----------------------------- |
| Approx. total storage required per process          258.5 MB         0.0 MB |
|                                                                             |
| Requirements will fluctuate during execution and may exceed these estimates |
+-----------------------------------------------------------------------------+
Calculating finite basis set correction with  3 cut-off energies.
Calculating total energy with cut-off of  190.000 eV.
------------------------------------------------------------------------ <-- SCF
SCF loop      Energy           Fermi           Energy gain       Timer   <-- SCF
                               energy          per atom          (sec)   <-- SCF
------------------------------------------------------------------------ <-- SCF
Initial  -1.63451563E+003  0.00000000E+000                         8.17  <-- SCF
      1  -2.69123890E+003  1.26071284E+001   1.05672327E+002       8.73  <-- SCF
      2  -2.81175113E+003  7.59461292E+000   1.20512227E+001       9.15  <-- SCF
      3  -2.81365142E+003  7.82379468E+000   1.90029570E-001       9.54  <-- SCF
      4  -2.81048917E+003  9.25668523E+000  -3.16225548E-001      10.04  <-- SCF
      5  -2.81045497E+003  9.09984017E+000  -3.42035933E-003      10.56  <-- SCF
      6  -2.81045305E+003  9.13029354E+000  -1.91449162E-004      11.08  <-- SCF
      7  -2.81045312E+003  9.13742808E+000   7.13792378E-006      11.48  <-- SCF
      8  -2.81045313E+003  9.13766665E+000   8.19053980E-007      11.83  <-- SCF
------------------------------------------------------------------------ <-- SCF
 
Final energy, E             =  -2810.449622156     eV
Final free energy (E-TS)    =  -2810.453130998     eV
(energies not corrected for finite basis set)
 
NB est. 0K energy (E-0.5TS)      =  -2810.451376577     eV
 
Calculating total energy with cut-off of  195.000 eV.
------------------------------------------------------------------------ <-- SCF
SCF loop      Energy           Fermi           Energy gain       Timer   <-- SCF
                               energy          per atom          (sec)   <-- SCF
------------------------------------------------------------------------ <-- SCF
Initial  -2.81044962E+003  0.00000000E+000                        12.02  <-- SCF
      1  -2.81610205E+003  8.90334155E+000   5.65242986E-001      12.43  <-- SCF
      2  -2.81611753E+003  8.90498468E+000   1.54807997E-003      12.98  <-- SCF
      3  -2.81608111E+003  9.04946525E+000  -3.64225069E-003      13.50  <-- SCF
      4  -2.81607934E+003  9.02004438E+000  -1.76858854E-004      14.02  <-- SCF
      5  -2.81607938E+003  9.01877507E+000   4.09442806E-006      14.37  <-- SCF
      6  -2.81607938E+003  9.01841941E+000   8.53089663E-008      14.70  <-- SCF
------------------------------------------------------------------------ <-- SCF
 
Final energy, E             =  -2816.076796206     eV
Final free energy (E-TS)    =  -2816.079383411     eV
(energies not corrected for finite basis set)
 
NB est. 0K energy (E-0.5TS)      =  -2816.078089809     eV
 
Calculating total energy with cut-off of  200.000 eV.
------------------------------------------------------------------------ <-- SCF
SCF loop      Energy           Fermi           Energy gain       Timer   <-- SCF
                               energy          per atom          (sec)   <-- SCF
------------------------------------------------------------------------ <-- SCF
Initial  -2.81607680E+003  0.00000000E+000                        14.89  <-- SCF
      1  -2.82203157E+003  8.86921806E+000   5.95476897E-001      15.31  <-- SCF
      2  -2.82205074E+003  8.87133635E+000   1.91772367E-003      15.82  <-- SCF
      3  -2.82200922E+003  9.02956814E+000  -4.15252824E-003      16.31  <-- SCF
      4  -2.82200699E+003  8.99687491E+000  -2.22556368E-004      16.80  <-- SCF
      5  -2.82200704E+003  8.99570050E+000   5.30475237E-006      17.18  <-- SCF
      6  -2.82200705E+003  8.99535546E+000   1.14206644E-007      17.51  <-- SCF
------------------------------------------------------------------------ <-- SCF
 
Final energy, E             =  -2822.005489345     eV
Final free energy (E-TS)    =  -2822.007045714     eV
(energies not corrected for finite basis set)
 
NB est. 0K energy (E-0.5TS)      =  -2822.006267530     eV
 
 For future reference: finite basis dEtot/dlog(Ecut) =    -223.737945eV
 Total energy corrected for finite basis set =   -2821.828707 eV
 
+---------------- MEMORY AND SCRATCH DISK ESTIMATES PER PROCESS --------------+
|                                                     Memory          Disk    |
| Model and support data                               65.5 MB         0.0 MB |
| Electronic energy minimisation requirements           8.4 MB         0.0 MB |
| Geometry minimisation requirements                   10.8 MB         0.0 MB |
|                                               ----------------------------- |
| Approx. total storage required per process           84.6 MB         0.0 MB |
|                                                                             |
| Requirements will fluctuate during execution and may exceed these estimates |
+-----------------------------------------------------------------------------+
 

 ************************************** Forces **************************************
 *                                                                                  *
 *                           Cartesian components (eV/A)                            *
 * -------------------------------------------------------------------------------- *
 *                         x                    y                    z              *
 *                                                                                  *
 * O               1     -0.20141              0.00001             -0.00001         *
 * O               2      0.10069              0.17442              0.00000         *
 * O               3      0.10070             -0.17443             -0.00000         *
 * O               4     -0.10069             -0.17442             -0.00000         *
 * O               5     -0.10070              0.17443              0.00000         *
 * O               6      0.20142             -0.00001              0.00001         *
 * Al              1     -0.00000              0.00001              0.22211         *
 * Al              2      0.00001             -0.00001              0.22212         *
 * Al              3      0.00000             -0.00001             -0.22211         *
 * Al              4     -0.00001              0.00001             -0.22212         *
 *                                                                                  *
 ************************************************************************************

 ***************** Stress Tensor *****************
 *                                               *
 *          Cartesian components (GPa)           *
 * --------------------------------------------- *
 *             x             y             z     *
 *                                               *
 *  x   -103.602212      0.000006     -0.000019  *
 *  y      0.000006   -103.602343     -0.000025  *
 *  z     -0.000019     -0.000025    -91.976819  *
 *                                               *
 *  Pressure:   99.7271                          *
 *                                               *
 *************************************************
 LBFGS: finished iteration     0 with enthalpy= -2.82182871E+003 eV
  
 +-----------+-----------------+-----------------+------------+-----+ <-- LBFGS
 | Parameter |      value      |    tolerance    |    units   | OK? | <-- LBFGS
 +-----------+-----------------+-----------------+------------+-----+ <-- LBFGS
 |  dE/ion   |   0.000000E+000 |   1.000000E-005 |         eV | No  | <-- LBFGS
 |  |F|max   |   2.221201E-001 |   1.000000E-002 |       eV/A | No  | <-- LBFGS
 |  |dR|max  |   0.000000E+000 |   1.000000E-003 |          A | No  | <-- LBFGS
 |   Smax    |   1.036023E+002 |   1.000000E-001 |        GPa | No  | <-- LBFGS
 +-----------+-----------------+-----------------+------------+-----+ <-- LBFGS
  

================================================================================
 Starting LBFGS iteration          1 ...
================================================================================
  
 +------------+-------------+-------------+-----------------+ <-- min LBFGS
 |    Step    |   lambda    |   F.delta'  |    enthalpy     | <-- min LBFGS
 +------------+-------------+-------------+-----------------+ <-- min LBFGS
 |  previous  |    0.000000 |    3.372983 |    -2821.828707 | <-- min LBFGS
 +------------+-------------+-------------+-----------------+ <-- min LBFGS
  

--------------------------------------------------------------------------------
 LBFGS: starting iteration         1 with trial guess (lambda=  0.810547)
--------------------------------------------------------------------------------
 
+---------------- MEMORY AND SCRATCH DISK ESTIMATES PER PROCESS --------------+
|                                                     Memory          Disk    |
| Model and support data                               66.0 MB         0.0 MB |
| Electronic energy minimisation requirements           9.2 MB         0.0 MB |
| Geometry minimisation requirements                   11.9 MB         0.0 MB |
|                                               ----------------------------- |
| Approx. total storage required per process           87.1 MB         0.0 MB |
|                                                                             |
| Requirements will fluctuate during execution and may exceed these estimates |
+-----------------------------------------------------------------------------+
 

                           -------------------------------
                                      Unit Cell
                           -------------------------------
        Real Lattice(A)              Reciprocal Lattice(1/A)
     2.5133451     1.4510802     4.5462551        1.249964720   0.721667441   0.460685821
    -2.5133450     1.4510802     4.5462551       -1.249964725   0.721667433   0.460685845
     0.0000001    -2.9021613     4.5462551       -0.000000009  -1.443334892   0.460685693

                       Lattice parameters(A)       Cell Angles
                    a =      5.393605          alpha =   55.548124
                    b =      5.393605          beta  =   55.548123
                    c =      5.393605          gamma =   55.548123

                Current cell volume =            99.482954 A**3
                            density =             2.049824 amu/A**3
                                    =             3.403813 g/cm^3

                           -------------------------------
                                     Cell Contents
                           -------------------------------

            xxxxxxxxxxxxxxxxxxxxxxxxxxxxxxxxxxxxxxxxxxxxxxxxxxxxxxxxxxxxxxxxx
            x  Element         Atom        Fractional coordinates of atoms  x
            x                 Number           u          v          w      x
            x---------------------------------------------------------------x
            x  O                 1         0.556096   0.943904   0.250000   x
            x  O                 2         0.943905   0.250000   0.556095   x
            x  O                 3         0.250000   0.556096   0.943904   x
            x  O                 4         0.056096   0.750000   0.443904   x
            x  O                 5         0.750000   0.443905   0.056095   x
            x  O                 6         0.443904   0.056096   0.750000   x
            x  Al                1         0.147966   0.147966   0.147966   x
            x  Al                2         0.647967   0.647967   0.647966   x
            x  Al                3         0.852034   0.852034   0.852033   x
            x  Al                4         0.352034   0.352034   0.352033   x
            xxxxxxxxxxxxxxxxxxxxxxxxxxxxxxxxxxxxxxxxxxxxxxxxxxxxxxxxxxxxxxxxx


------------------------------------------------------------------------ <-- SCF
SCF loop      Energy           Fermi           Energy gain       Timer   <-- SCF
                               energy          per atom          (sec)   <-- SCF
------------------------------------------------------------------------ <-- SCF
Initial  -2.80214624E+003  0.00000000E+000                        19.00  <-- SCF
      1  -2.83113700E+003  5.45445659E+000   2.89907607E+000      19.46  <-- SCF
      2  -2.83135537E+003  5.47062179E+000   2.18370632E-002      19.90  <-- SCF
      3  -2.82805654E+003  7.03212698E+000  -3.29882845E-001      20.42  <-- SCF
      4  -2.82780642E+003  6.69182619E+000  -2.50116283E-002      20.95  <-- SCF
      5  -2.82780884E+003  6.69675952E+000   2.41885889E-004      21.52  <-- SCF
      6  -2.82780871E+003  6.69858710E+000  -1.26109789E-005      21.95  <-- SCF
      7  -2.82780872E+003  6.69918763E+000   3.91115686E-007      22.32  <-- SCF
      8  -2.82780872E+003  6.69959296E+000   6.19927194E-008      22.66  <-- SCF
------------------------------------------------------------------------ <-- SCF
 
Final energy, E             =  -2827.804769832     eV
Final free energy (E-TS)    =  -2827.808719022     eV
(energies not corrected for finite basis set)
 
NB est. 0K energy (E-0.5TS)      =  -2827.806744427     eV
 

 ************************************** Forces **************************************
 *                                                                                  *
 *                           Cartesian components (eV/A)                            *
 * -------------------------------------------------------------------------------- *
 *                         x                    y                    z              *
 *                                                                                  *
 * O               1      0.32774              0.00001             -0.00000         *
 * O               2     -0.16388             -0.28384              0.00000         *
 * O               3     -0.16388              0.28383             -0.00000         *
 * O               4      0.16388              0.28384             -0.00000         *
 * O               5      0.16388             -0.28383              0.00000         *
 * O               6     -0.32774             -0.00001              0.00000         *
 * Al              1     -0.00000              0.00001              0.18368         *
 * Al              2      0.00000             -0.00001              0.18368         *
 * Al              3      0.00000             -0.00001             -0.18368         *
 * Al              4     -0.00000              0.00000             -0.18368         *
 *                                                                                  *
 ************************************************************************************

 ***************** Stress Tensor *****************
 *                                               *
 *          Cartesian components (GPa)           *
 * --------------------------------------------- *
 *             x             y             z     *
 *                                               *
 *  x    -51.583083     -0.000002     -0.000004  *
 *  y     -0.000002    -51.583117     -0.000016  *
 *  z     -0.000004     -0.000016    -44.715462  *
 *                                               *
 *  Pressure:   49.2939                          *
 *                                               *
 *************************************************
  
 +------------+-------------+-------------+-----------------+ <-- min LBFGS
 |    Step    |   lambda    |   F.delta'  |    enthalpy     | <-- min LBFGS
 +------------+-------------+-------------+-----------------+ <-- min LBFGS
 |  previous  |    0.000000 |    3.372983 |    -2821.828707 | <-- min LBFGS
 | trial step |    0.810547 |    1.851476 |    -2827.973076 | <-- min LBFGS
 +------------+-------------+-------------+-----------------+ <-- min LBFGS
  

--------------------------------------------------------------------------------
 LBFGS: improving iteration         1 with line minimization (lambda=  1.215820)
--------------------------------------------------------------------------------
 
+---------------- MEMORY AND SCRATCH DISK ESTIMATES PER PROCESS --------------+
|                                                     Memory          Disk    |
| Model and support data                               66.6 MB         0.0 MB |
| Electronic energy minimisation requirements           9.7 MB         0.0 MB |
| Geometry minimisation requirements                   12.6 MB         0.0 MB |
|                                               ----------------------------- |
| Approx. total storage required per process           88.9 MB         0.0 MB |
|                                                                             |
| Requirements will fluctuate during execution and may exceed these estimates |
+-----------------------------------------------------------------------------+
 

                           -------------------------------
                                      Unit Cell
                           -------------------------------
        Real Lattice(A)              Reciprocal Lattice(1/A)
     2.5799676     1.4895448     4.6538827        1.217686868   0.703031793   0.450031807
    -2.5799675     1.4895448     4.6538826       -1.217686875   0.703031782   0.450031842
     0.0000001    -2.9790904     4.6538826       -0.000000013  -1.406063600   0.450031700

                       Lattice parameters(A)       Cell Angles
                    a =      5.525722          alpha =   55.666705
                    b =      5.525722          beta  =   55.666704
                    c =      5.525722          gamma =   55.666703

                Current cell volume =           107.308612 A**3
                            density =             1.900337 amu/A**3
                                    =             3.155584 g/cm^3

                           -------------------------------
                                     Cell Contents
                           -------------------------------

            xxxxxxxxxxxxxxxxxxxxxxxxxxxxxxxxxxxxxxxxxxxxxxxxxxxxxxxxxxxxxxxxx
            x  Element         Atom        Fractional coordinates of atoms  x
            x                 Number           u          v          w      x
            x---------------------------------------------------------------x
            x  O                 1         0.556013   0.943987   0.250000   x
            x  O                 2         0.943987   0.250000   0.556013   x
            x  O                 3         0.250000   0.556013   0.943987   x
            x  O                 4         0.056013   0.750000   0.443987   x
            x  O                 5         0.750000   0.443987   0.056013   x
            x  O                 6         0.443987   0.056013   0.750000   x
            x  Al                1         0.148000   0.148000   0.148000   x
            x  Al                2         0.648000   0.648000   0.648000   x
            x  Al                3         0.852000   0.852000   0.852000   x
            x  Al                4         0.352000   0.352000   0.352000   x
            xxxxxxxxxxxxxxxxxxxxxxxxxxxxxxxxxxxxxxxxxxxxxxxxxxxxxxxxxxxxxxxxx


------------------------------------------------------------------------ <-- SCF
SCF loop      Energy           Fermi           Energy gain       Timer   <-- SCF
                               energy          per atom          (sec)   <-- SCF
------------------------------------------------------------------------ <-- SCF
Initial  -2.81779863E+003  0.00000000E+000                        24.18  <-- SCF
      1  -2.83018307E+003  5.07801297E+000   1.23844399E+000      24.65  <-- SCF
      2  -2.83026186E+003  5.09281705E+000   7.87956233E-003      25.24  <-- SCF
      3  -2.82944495E+003  5.89555280E+000  -8.16911159E-002      25.77  <-- SCF
      4  -2.82936370E+003  5.69795736E+000  -8.12563057E-003      26.32  <-- SCF
      5  -2.82936469E+003  5.69875079E+000   9.91159861E-005      26.89  <-- SCF
      6  -2.82936466E+003  5.69957377E+000  -2.95397307E-006      27.27  <-- SCF
      7  -2.82936466E+003  5.69993577E+000   1.82856856E-007      27.61  <-- SCF
------------------------------------------------------------------------ <-- SCF
 
Final energy, E             =  -2829.360089087     eV
Final free energy (E-TS)    =  -2829.364659870     eV
(energies not corrected for finite basis set)
 
NB est. 0K energy (E-0.5TS)      =  -2829.362374479     eV
 

 ************************************** Forces **************************************
 *                                                                                  *
 *                           Cartesian components (eV/A)                            *
 * -------------------------------------------------------------------------------- *
 *                         x                    y                    z              *
 *                                                                                  *
 * O               1      0.50208              0.00001             -0.00000         *
 * O               2     -0.25105             -0.43482              0.00000         *
 * O               3     -0.25104              0.43481             -0.00000         *
 * O               4      0.25105              0.43482             -0.00000         *
 * O               5      0.25104             -0.43481              0.00000         *
 * O               6     -0.50208             -0.00001              0.00000         *
 * Al              1     -0.00000              0.00001              0.20883         *
 * Al              2      0.00000             -0.00000              0.20884         *
 * Al              3      0.00000             -0.00001             -0.20883         *
 * Al              4     -0.00000              0.00000             -0.20883         *
 *                                                                                  *
 ************************************************************************************

 ***************** Stress Tensor *****************
 *                                               *
 *          Cartesian components (GPa)           *
 * --------------------------------------------- *
 *             x             y             z     *
 *                                               *
 *  x    -34.083640     -0.000004     -0.000000  *
 *  y     -0.000004    -34.083648     -0.000011  *
 *  z     -0.000000     -0.000011    -29.056991  *
 *                                               *
 *  Pressure:   32.4081                          *
 *                                               *
 *************************************************
  
 +------------+-------------+-------------+-----------------+ <-- min LBFGS
 |    Step    |   lambda    |   F.delta'  |    enthalpy     | <-- min LBFGS
 +------------+-------------+-------------+-----------------+ <-- min LBFGS
 |  previous  |    0.000000 |    3.372983 |    -2821.828707 | <-- min LBFGS
 | trial step |    0.810547 |    1.851476 |    -2827.973076 | <-- min LBFGS
 |  line step |    1.215820 |    1.280126 |    -2829.323634 | <-- min LBFGS
 +------------+-------------+-------------+-----------------+ <-- min LBFGS
  
 LBFGS: finished iteration     1 with enthalpy= -2.82932363E+003 eV
  
 +-----------+-----------------+-----------------+------------+-----+ <-- LBFGS
 | Parameter |      value      |    tolerance    |    units   | OK? | <-- LBFGS
 +-----------+-----------------+-----------------+------------+-----+ <-- LBFGS
 |  dE/ion   |   7.494927E-001 |   1.000000E-005 |         eV | No  | <-- LBFGS
 |  |F|max   |   5.020871E-001 |   1.000000E-002 |       eV/A | No  | <-- LBFGS
 |  |dR|max  |   1.391172E-003 |   1.000000E-003 |          A | No  | <-- LBFGS
 |   Smax    |   3.408365E+001 |   1.000000E-001 |        GPa | No  | <-- LBFGS
 +-----------+-----------------+-----------------+------------+-----+ <-- LBFGS
  

================================================================================
 Starting LBFGS iteration          2 ...
================================================================================
  
 +------------+-------------+-------------+-----------------+ <-- min LBFGS
 |    Step    |   lambda    |   F.delta'  |    enthalpy     | <-- min LBFGS
 +------------+-------------+-------------+-----------------+ <-- min LBFGS
 |  previous  |    0.000000 |    1.286590 |    -2829.323634 | <-- min LBFGS
 +------------+-------------+-------------+-----------------+ <-- min LBFGS
  

--------------------------------------------------------------------------------
 LBFGS: starting iteration         2 with trial guess (lambda=  1.000000)
--------------------------------------------------------------------------------
 
+---------------- MEMORY AND SCRATCH DISK ESTIMATES PER PROCESS --------------+
|                                                     Memory          Disk    |
| Model and support data                               67.2 MB         0.0 MB |
| Electronic energy minimisation requirements          10.7 MB         0.0 MB |
| Geometry minimisation requirements                   13.9 MB         0.0 MB |
|                                               ----------------------------- |
| Approx. total storage required per process           91.8 MB         0.0 MB |
|                                                                             |
| Requirements will fluctuate during execution and may exceed these estimates |
+-----------------------------------------------------------------------------+
 

                           -------------------------------
                                      Unit Cell
                           -------------------------------
        Real Lattice(A)              Reciprocal Lattice(1/A)
     2.7036678     1.5609632     4.8485838        1.161974400   0.670866171   0.431960198
    -2.7036676     1.5609632     4.8485837       -1.161974412   0.670866170   0.431960233
     0.0000001    -3.1219270     4.8485836       -0.000000007  -1.341732381   0.431960122

                       Lattice parameters(A)       Cell Angles
                    a =      5.766731          alpha =   55.917904
                    b =      5.766731          beta  =   55.917904
                    c =      5.766731          gamma =   55.917901

                Current cell volume =           122.775631 A**3
                            density =             1.660937 amu/A**3
                                    =             2.758050 g/cm^3

                           -------------------------------
                                     Cell Contents
                           -------------------------------

            xxxxxxxxxxxxxxxxxxxxxxxxxxxxxxxxxxxxxxxxxxxxxxxxxxxxxxxxxxxxxxxxx
            x  Element         Atom        Fractional coordinates of atoms  x
            x                 Number           u          v          w      x
            x---------------------------------------------------------------x
            x  O                 1         0.556869   0.943131   0.250000   x
            x  O                 2         0.943131   0.250000   0.556869   x
            x  O                 3         0.250000   0.556869   0.943131   x
            x  O                 4         0.056869   0.750000   0.443131   x
            x  O                 5         0.750000   0.443131   0.056869   x
            x  O                 6         0.443131   0.056869   0.750000   x
            x  Al                1         0.148144   0.148144   0.148144   x
            x  Al                2         0.648144   0.648144   0.648144   x
            x  Al                3         0.851856   0.851856   0.851856   x
            x  Al                4         0.351856   0.351856   0.351856   x
            xxxxxxxxxxxxxxxxxxxxxxxxxxxxxxxxxxxxxxxxxxxxxxxxxxxxxxxxxxxxxxxxx


------------------------------------------------------------------------ <-- SCF
SCF loop      Energy           Fermi           Energy gain       Timer   <-- SCF
                               energy          per atom          (sec)   <-- SCF
------------------------------------------------------------------------ <-- SCF
Initial  -2.80897946E+003  0.00000000E+000                        29.17  <-- SCF
      1  -2.83207749E+003  3.29115368E+000   2.30980289E+000      29.67  <-- SCF
      2  -2.83229812E+003  3.30152041E+000   2.20631371E-002      30.32  <-- SCF
      3  -2.82972389E+003  4.80888168E+000  -2.57423409E-001      30.89  <-- SCF
      4  -2.82933540E+003  4.38384659E+000  -3.88482571E-002      31.48  <-- SCF
      5  -2.82934308E+003  4.38908445E+000   7.67326354E-004      32.10  <-- SCF
      6  -2.82934305E+003  4.39262778E+000  -2.56019954E-006      32.63  <-- SCF
      7  -2.82934306E+003  4.39382988E+000   8.51317314E-007      32.99  <-- SCF
------------------------------------------------------------------------ <-- SCF
 
Final energy, E             =  -2829.339734152     eV
Final free energy (E-TS)    =  -2829.343058878     eV
(energies not corrected for finite basis set)
 
NB est. 0K energy (E-0.5TS)      =  -2829.341396515     eV
 

 ************************************** Forces **************************************
 *                                                                                  *
 *                           Cartesian components (eV/A)                            *
 * -------------------------------------------------------------------------------- *
 *                         x                    y                    z              *
 *                                                                                  *
 * O               1      0.23167              0.00000             -0.00000         *
 * O               2     -0.11584             -0.20064             -0.00000         *
 * O               3     -0.11584              0.20064             -0.00000         *
 * O               4      0.11585              0.20066             -0.00000         *
 * O               5      0.11586             -0.20067              0.00000         *
 * O               6     -0.23170             -0.00000              0.00000         *
 * Al              1     -0.00000              0.00000              0.27906         *
 * Al              2     -0.00000             -0.00000              0.27907         *
 * Al              3      0.00000             -0.00000             -0.27906         *
 * Al              4      0.00000              0.00000             -0.27906         *
 *                                                                                  *
 ************************************************************************************

 ***************** Stress Tensor *****************
 *                                               *
 *          Cartesian components (GPa)           *
 * --------------------------------------------- *
 *             x             y             z     *
 *                                               *
 *  x    -12.762675     -0.000003      0.000007  *
 *  y     -0.000003    -12.762663     -0.000002  *
 *  z      0.000007     -0.000002     -9.908983  *
 *                                               *
 *  Pressure:   11.8114                          *
 *                                               *
 *************************************************
  
 +------------+-------------+-------------+-----------------+ <-- min LBFGS
 |    Step    |   lambda    |   F.delta'  |    enthalpy     | <-- min LBFGS
 +------------+-------------+-------------+-----------------+ <-- min LBFGS
 |  previous  |    0.000000 |    1.286590 |    -2829.323634 | <-- min LBFGS
 | trial step |    1.000000 |    0.515206 |    -2829.288130 | <-- min LBFGS
 +------------+-------------+-------------+-----------------+ <-- min LBFGS
  
 LBFGS: finished iteration     2 with enthalpy= -2.82928813E+003 eV
  
 +-----------+-----------------+-----------------+------------+-----+ <-- LBFGS
 | Parameter |      value      |    tolerance    |    units   | OK? | <-- LBFGS
 +-----------+-----------------+-----------------+------------+-----+ <-- LBFGS
 |  dE/ion   |   3.550337E-003 |   1.000000E-005 |         eV | No  | <-- LBFGS
 |  |F|max   |   2.790657E-001 |   1.000000E-002 |       eV/A | No  | <-- LBFGS
 |  |dR|max  |   4.628744E-003 |   1.000000E-003 |          A | No  | <-- LBFGS
 |   Smax    |   1.276267E+001 |   1.000000E-001 |        GPa | No  | <-- LBFGS
 +-----------+-----------------+-----------------+------------+-----+ <-- LBFGS
  

================================================================================
 Starting LBFGS iteration          3 ...
================================================================================
  
 +------------+-------------+-------------+-----------------+ <-- min LBFGS
 |    Step    |   lambda    |   F.delta'  |    enthalpy     | <-- min LBFGS
 +------------+-------------+-------------+-----------------+ <-- min LBFGS
 |  previous  |    0.000000 |    0.517168 |    -2829.288130 | <-- min LBFGS
 +------------+-------------+-------------+-----------------+ <-- min LBFGS
  
 WARNING in geom_xvec_to_mdl - large cell change detected
                             - consider your initial cell

--------------------------------------------------------------------------------
 LBFGS: starting iteration         3 with trial guess (lambda=  1.000000)
--------------------------------------------------------------------------------
 
+---------------- MEMORY AND SCRATCH DISK ESTIMATES PER PROCESS --------------+
|                                                     Memory          Disk    |
| Model and support data                               67.7 MB         0.0 MB |
| Electronic energy minimisation requirements          11.5 MB         0.0 MB |
| Geometry minimisation requirements                   14.9 MB         0.0 MB |
|                                               ----------------------------- |
| Approx. total storage required per process           94.1 MB         0.0 MB |
|                                                                             |
| Requirements will fluctuate during execution and may exceed these estimates |
+-----------------------------------------------------------------------------+
 

                           -------------------------------
                                      Unit Cell
                           -------------------------------
        Real Lattice(A)              Reciprocal Lattice(1/A)
     2.7873011     1.6092489     4.9745723        1.127109192   0.650736735   0.421020161
    -2.7873010     1.6092489     4.9745723       -1.127109203   0.650736745   0.421020175
     0.0000000    -3.2184984     4.9745721        0.000000003  -1.301473525   0.421020087

                       Lattice parameters(A)       Cell Angles
                    a =      5.924956          alpha =   56.124958
                    b =      5.924956          beta  =   56.124958
                    c =      5.924956          gamma =   56.124955

                Current cell volume =           133.879521 A**3
                            density =             1.523180 amu/A**3
                                    =             2.529299 g/cm^3

                           -------------------------------
                                     Cell Contents
                           -------------------------------

            xxxxxxxxxxxxxxxxxxxxxxxxxxxxxxxxxxxxxxxxxxxxxxxxxxxxxxxxxxxxxxxxx
            x  Element         Atom        Fractional coordinates of atoms  x
            x                 Number           u          v          w      x
            x---------------------------------------------------------------x
            x  O                 1         0.557518   0.942482   0.250000   x
            x  O                 2         0.942483   0.250000   0.557517   x
            x  O                 3         0.250000   0.557518   0.942482   x
            x  O                 4         0.057518   0.750000   0.442482   x
            x  O                 5         0.750000   0.442482   0.057518   x
            x  O                 6         0.442482   0.057518   0.750000   x
            x  Al                1         0.148378   0.148378   0.148378   x
            x  Al                2         0.648378   0.648378   0.648378   x
            x  Al                3         0.851622   0.851622   0.851622   x
            x  Al                4         0.351622   0.351622   0.351622   x
            xxxxxxxxxxxxxxxxxxxxxxxxxxxxxxxxxxxxxxxxxxxxxxxxxxxxxxxxxxxxxxxxx


------------------------------------------------------------------------ <-- SCF
SCF loop      Energy           Fermi           Energy gain       Timer   <-- SCF
                               energy          per atom          (sec)   <-- SCF
------------------------------------------------------------------------ <-- SCF
Initial  -2.81590699E+003  0.00000000E+000                        34.74  <-- SCF
      1  -2.82917502E+003  2.79390206E+000   1.32680351E+000      35.27  <-- SCF
      2  -2.82928693E+003  2.79955104E+000   1.11905528E-002      35.94  <-- SCF
      3  -2.82821713E+003  3.82627637E+000  -1.06979571E-001      36.54  <-- SCF
      4  -2.82800239E+003  3.51097492E+000  -2.14744697E-002      37.15  <-- SCF
      5  -2.82800672E+003  3.51404470E+000   4.33715836E-004      37.81  <-- SCF
      6  -2.82800672E+003  3.51697513E+000  -5.15466863E-007      38.31  <-- SCF
      7  -2.82800673E+003  3.51804573E+000   8.68554877E-007      38.69  <-- SCF
------------------------------------------------------------------------ <-- SCF
 
Final energy, E             =  -2828.001275873     eV
Final free energy (E-TS)    =  -2828.006726624     eV
(energies not corrected for finite basis set)
 
NB est. 0K energy (E-0.5TS)      =  -2828.004001249     eV
 

 ************************************** Forces **************************************
 *                                                                                  *
 *                           Cartesian components (eV/A)                            *
 * -------------------------------------------------------------------------------- *
 *                         x                    y                    z              *
 *                                                                                  *
 * O               1     -0.23950              0.00000              0.00000         *
 * O               2      0.11975              0.20741             -0.00000         *
 * O               3      0.11975             -0.20741             -0.00000         *
 * O               4     -0.11974             -0.20739              0.00000         *
 * O               5     -0.11973              0.20739              0.00000         *
 * O               6      0.23948             -0.00000             -0.00000         *
 * Al              1     -0.00000              0.00000              0.25932         *
 * Al              2     -0.00000             -0.00000              0.25933         *
 * Al              3      0.00000             -0.00000             -0.25933         *
 * Al              4      0.00000              0.00000             -0.25932         *
 *                                                                                  *
 ************************************************************************************

 ***************** Stress Tensor *****************
 *                                               *
 *          Cartesian components (GPa)           *
 * --------------------------------------------- *
 *             x             y             z     *
 *                                               *
 *  x     -4.099223     -0.000001      0.000004  *
 *  y     -0.000001     -4.099213     -0.000005  *
 *  z      0.000004     -0.000005     -2.222612  *
 *                                               *
 *  Pressure:    3.4737                          *
 *                                               *
 *************************************************
  
 +------------+-------------+-------------+-----------------+ <-- min LBFGS
 |    Step    |   lambda    |   F.delta'  |    enthalpy     | <-- min LBFGS
 +------------+-------------+-------------+-----------------+ <-- min LBFGS
 |  previous  |    0.000000 |    0.517168 |    -2829.288130 | <-- min LBFGS
 | trial step |    1.000000 |    0.160064 |    -2828.112668 | <-- min LBFGS
 +------------+-------------+-------------+-----------------+ <-- min LBFGS
  

--------------------------------------------------------------------------------
 LBFGS: improving iteration         3 with line minimization (lambda=  1.448229)
--------------------------------------------------------------------------------
 
+---------------- MEMORY AND SCRATCH DISK ESTIMATES PER PROCESS --------------+
|                                                     Memory          Disk    |
| Model and support data                               70.1 MB         0.0 MB |
| Electronic energy minimisation requirements          12.1 MB         0.0 MB |
| Geometry minimisation requirements                   15.7 MB         0.0 MB |
|                                               ----------------------------- |
| Approx. total storage required per process           97.8 MB         0.0 MB |
|                                                                             |
| Requirements will fluctuate during execution and may exceed these estimates |
+-----------------------------------------------------------------------------+
 

                           -------------------------------
                                      Unit Cell
                           -------------------------------
        Real Lattice(A)              Reciprocal Lattice(1/A)
     2.8247880     1.6308920     5.0310441        1.112151659   0.642101000   0.416294356
    -2.8247880     1.6308920     5.0310440       -1.112151670   0.642101014   0.416294362
    -0.0000000    -3.2617846     5.0310439        0.000000007  -1.284202062   0.416294283

                       Lattice parameters(A)       Cell Angles
                    a =      5.995885          alpha =   56.214189
                    b =      5.995885          beta  =   56.214189
                    c =      5.995885          gamma =   56.214187

                Current cell volume =           139.065844 A**3
                            density =             1.466374 amu/A**3
                                    =             2.434972 g/cm^3

                           -------------------------------
                                     Cell Contents
                           -------------------------------

            xxxxxxxxxxxxxxxxxxxxxxxxxxxxxxxxxxxxxxxxxxxxxxxxxxxxxxxxxxxxxxxxx
            x  Element         Atom        Fractional coordinates of atoms  x
            x                 Number           u          v          w      x
            x---------------------------------------------------------------x
            x  O                 1         0.557808   0.942192   0.250000   x
            x  O                 2         0.942192   0.250000   0.557808   x
            x  O                 3         0.250000   0.557808   0.942192   x
            x  O                 4         0.057808   0.750000   0.442192   x
            x  O                 5         0.750000   0.442192   0.057808   x
            x  O                 6         0.442192   0.057808   0.750000   x
            x  Al                1         0.148482   0.148482   0.148482   x
            x  Al                2         0.648483   0.648483   0.648482   x
            x  Al                3         0.851518   0.851518   0.851517   x
            x  Al                4         0.351518   0.351518   0.351517   x
            xxxxxxxxxxxxxxxxxxxxxxxxxxxxxxxxxxxxxxxxxxxxxxxxxxxxxxxxxxxxxxxxx


------------------------------------------------------------------------ <-- SCF
SCF loop      Energy           Fermi           Energy gain       Timer   <-- SCF
                               energy          per atom          (sec)   <-- SCF
------------------------------------------------------------------------ <-- SCF
Initial  -2.82239986E+003  0.00000000E+000                        40.36  <-- SCF
      1  -2.82800234E+003  2.96182217E+000   5.60247700E-001      40.94  <-- SCF
      2  -2.82803501E+003  2.96293874E+000   3.26727516E-003      41.70  <-- SCF
      3  -2.82781406E+003  3.43745567E+000  -2.20955411E-002      42.36  <-- SCF
      4  -2.82776247E+003  3.28547081E+000  -5.15860114E-003      43.09  <-- SCF
      5  -2.82776359E+003  3.28652799E+000   1.11942449E-004      43.78  <-- SCF
      6  -2.82776359E+003  3.28788617E+000  -4.69762945E-007      44.30  <-- SCF
      7  -2.82776359E+003  3.28841686E+000   1.61714117E-007      44.73  <-- SCF
------------------------------------------------------------------------ <-- SCF
 
Final energy, E             =  -2827.758690988     eV
Final free energy (E-TS)    =  -2827.763589382     eV
(energies not corrected for finite basis set)
 
NB est. 0K energy (E-0.5TS)      =  -2827.761140185     eV
 

 ************************************** Forces **************************************
 *                                                                                  *
 *                           Cartesian components (eV/A)                            *
 * -------------------------------------------------------------------------------- *
 *                         x                    y                    z              *
 *                                                                                  *
 * O               1     -0.50940              0.00087             -0.00022         *
 * O               2      0.25545              0.44072             -0.00022         *
 * O               3      0.25395             -0.44159             -0.00022         *
 * O               4     -0.25545             -0.44071              0.00022         *
 * O               5     -0.25394              0.44158              0.00022         *
 * O               6      0.50939             -0.00087              0.00022         *
 * Al              1     -0.00000              0.00000              0.21441         *
 * Al              2      0.00000             -0.00000              0.22659         *
 * Al              3      0.00000              0.00000             -0.21441         *
 * Al              4     -0.00000              0.00000             -0.22658         *
 *                                                                                  *
 ************************************************************************************

 ***************** Stress Tensor *****************
 *                                               *
 *          Cartesian components (GPa)           *
 * --------------------------------------------- *
 *             x             y             z     *
 *                                               *
 *  x     -1.180022      0.000001      0.000001  *
 *  y      0.000001     -1.180011      0.000000  *
 *  z      0.000001      0.000000      0.496784  *
 *                                               *
 *  Pressure:    0.6211                          *
 *                                               *
 *************************************************
  
 +------------+-------------+-------------+-----------------+ <-- min LBFGS
 |    Step    |   lambda    |   F.delta'  |    enthalpy     | <-- min LBFGS
 +------------+-------------+-------------+-----------------+ <-- min LBFGS
 |  previous  |    0.000000 |    0.517168 |    -2829.288130 | <-- min LBFGS
 | trial step |    1.000000 |    0.160064 |    -2828.112668 | <-- min LBFGS
 |  line step |    1.448229 |    0.026633 |    -2827.491957 | <-- min LBFGS
 +------------+-------------+-------------+-----------------+ <-- min LBFGS
  
 LBFGS: finished iteration     3 with enthalpy= -2.82749196E+003 eV
  
 +-----------+-----------------+-----------------+------------+-----+ <-- LBFGS
 | Parameter |      value      |    tolerance    |    units   | OK? | <-- LBFGS
 +-----------+-----------------+-----------------+------------+-----+ <-- LBFGS
 |  dE/ion   |   1.796173E-001 |   1.000000E-005 |         eV | No  | <-- LBFGS
 |  |F|max   |   5.094035E-001 |   1.000000E-002 |       eV/A | No  | <-- LBFGS
 |  |dR|max  |   5.304088E-003 |   1.000000E-003 |          A | No  | <-- LBFGS
 |   Smax    |   1.180022E+000 |   1.000000E-001 |        GPa | No  | <-- LBFGS
 +-----------+-----------------+-----------------+------------+-----+ <-- LBFGS
  

================================================================================
 Starting LBFGS iteration          4 ...
================================================================================
  
 +------------+-------------+-------------+-----------------+ <-- min LBFGS
 |    Step    |   lambda    |   F.delta'  |    enthalpy     | <-- min LBFGS
 +------------+-------------+-------------+-----------------+ <-- min LBFGS
 |  previous  |    0.000000 |    0.105010 |    -2827.491957 | <-- min LBFGS
 +------------+-------------+-------------+-----------------+ <-- min LBFGS
  

--------------------------------------------------------------------------------
 LBFGS: starting iteration         4 with trial guess (lambda=  1.000000)
--------------------------------------------------------------------------------

                           -------------------------------
                                      Unit Cell
                           -------------------------------
        Real Lattice(A)              Reciprocal Lattice(1/A)
     2.8342285     1.6363425     5.0391358        1.108447194   0.639962232   0.415625880
    -2.8342285     1.6363425     5.0391358       -1.108447202   0.639962245   0.415625883
    -0.0000000    -3.2726856     5.0391356        0.000000006  -1.279924526   0.415625806

                       Lattice parameters(A)       Cell Angles
                    a =      6.008607          alpha =   56.288731
                    b =      6.008607          beta  =   56.288731
                    c =      6.008607          gamma =   56.288729

                Current cell volume =           140.222087 A**3
                            density =             1.454283 amu/A**3
                                    =             2.414893 g/cm^3

                           -------------------------------
                                     Cell Contents
                           -------------------------------

            xxxxxxxxxxxxxxxxxxxxxxxxxxxxxxxxxxxxxxxxxxxxxxxxxxxxxxxxxxxxxxxxx
            x  Element         Atom        Fractional coordinates of atoms  x
            x                 Number           u          v          w      x
            x---------------------------------------------------------------x
            x  O                 1         0.557217   0.942784   0.249999   x
            x  O                 2         0.942784   0.249999   0.557217   x
            x  O                 3         0.249999   0.557217   0.942784   x
            x  O                 4         0.057216   0.750001   0.442783   x
            x  O                 5         0.750001   0.442783   0.057216   x
            x  O                 6         0.442783   0.057216   0.750001   x
            x  Al                1         0.148596   0.148596   0.148596   x
            x  Al                2         0.648601   0.648601   0.648601   x
            x  Al                3         0.851404   0.851404   0.851404   x
            x  Al                4         0.351399   0.351399   0.351399   x
            xxxxxxxxxxxxxxxxxxxxxxxxxxxxxxxxxxxxxxxxxxxxxxxxxxxxxxxxxxxxxxxxx


------------------------------------------------------------------------ <-- SCF
SCF loop      Energy           Fermi           Energy gain       Timer   <-- SCF
                               energy          per atom          (sec)   <-- SCF
------------------------------------------------------------------------ <-- SCF
Initial  -2.82647860E+003  0.00000000E+000                        46.54  <-- SCF
      1  -2.82750521E+003  3.13621824E+000   1.02661652E-001      47.14  <-- SCF
      2  -2.82750929E+003  3.13840800E+000   4.07573060E-004      47.86  <-- SCF
      3  -2.82746213E+003  3.24189859E+000  -4.71554978E-003      48.52  <-- SCF
      4  -2.82746067E+003  3.20984698E+000  -1.46218506E-004      49.22  <-- SCF
      5  -2.82746062E+003  3.21659474E+000  -5.26864762E-006      49.83  <-- SCF
      6  -2.82746063E+003  3.21727962E+000   6.02853398E-007      50.29  <-- SCF
------------------------------------------------------------------------ <-- SCF
 
Final energy, E             =  -2827.455593915     eV
Final free energy (E-TS)    =  -2827.460625053     eV
(energies not corrected for finite basis set)
 
NB est. 0K energy (E-0.5TS)      =  -2827.458109484     eV
 

 ************************************** Forces **************************************
 *                                                                                  *
 *                           Cartesian components (eV/A)                            *
 * -------------------------------------------------------------------------------- *
 *                         x                    y                    z              *
 *                                                                                  *
 * O               1     -0.49312              0.00065             -0.00027         *
 * O               2      0.24712              0.42673             -0.00028         *
 * O               3      0.24600             -0.42737             -0.00027         *
 * O               4     -0.24712             -0.42673              0.00028         *
 * O               5     -0.24600              0.42738              0.00027         *
 * O               6      0.49312             -0.00065              0.00027         *
 * Al              1     -0.00000              0.00000              0.20243         *
 * Al              2     -0.00000              0.00000              0.21390         *
 * Al              3      0.00000             -0.00000             -0.20243         *
 * Al              4      0.00000              0.00000             -0.21391         *
 *                                                                                  *
 ************************************************************************************

 ***************** Stress Tensor *****************
 *                                               *
 *          Cartesian components (GPa)           *
 * --------------------------------------------- *
 *             x             y             z     *
 *                                               *
 *  x     -0.558882      0.000000      0.000002  *
 *  y      0.000000     -0.558872     -0.000001  *
 *  z      0.000002     -0.000001      0.701400  *
 *                                               *
 *  Pressure:    0.1388                          *
 *                                               *
 *************************************************
  
 +------------+-------------+-------------+-----------------+ <-- min LBFGS
 |    Step    |   lambda    |   F.delta'  |    enthalpy     | <-- min LBFGS
 +------------+-------------+-------------+-----------------+ <-- min LBFGS
 |  previous  |    0.000000 |    0.105010 |    -2827.491957 | <-- min LBFGS
 | trial step |    1.000000 |    0.080060 |    -2827.371755 | <-- min LBFGS
 +------------+-------------+-------------+-----------------+ <-- min LBFGS
  

--------------------------------------------------------------------------------
 LBFGS: improving iteration         4 with line minimization (lambda=  4.208805)
--------------------------------------------------------------------------------
 
+---------------- MEMORY AND SCRATCH DISK ESTIMATES PER PROCESS --------------+
|                                                     Memory          Disk    |
| Model and support data                               70.2 MB         0.0 MB |
| Electronic energy minimisation requirements          12.4 MB         0.0 MB |
| Geometry minimisation requirements                   16.0 MB         0.0 MB |
|                                               ----------------------------- |
| Approx. total storage required per process           98.6 MB         0.0 MB |
|                                                                             |
| Requirements will fluctuate during execution and may exceed these estimates |
+-----------------------------------------------------------------------------+
 

                           -------------------------------
                                      Unit Cell
                           -------------------------------
        Real Lattice(A)              Reciprocal Lattice(1/A)
     2.8645213     1.6538320     5.0651006        1.096725169   0.633194539   0.413495294
    -2.8645214     1.6538320     5.0651006       -1.096725171   0.633194545   0.413495288
    -0.0000000    -3.3076646     5.0651004        0.000000004  -1.266389134   0.413495218

                       Lattice parameters(A)       Cell Angles
                    a =      6.049453          alpha =   56.525722
                    b =      6.049453          beta  =   56.525722
                    c =      6.049453          gamma =   56.525721

                Current cell volume =           143.973588 A**3
                            density =             1.416389 amu/A**3
                                    =             2.351969 g/cm^3

                           -------------------------------
                                     Cell Contents
                           -------------------------------

            xxxxxxxxxxxxxxxxxxxxxxxxxxxxxxxxxxxxxxxxxxxxxxxxxxxxxxxxxxxxxxxxx
            x  Element         Atom        Fractional coordinates of atoms  x
            x                 Number           u          v          w      x
            x---------------------------------------------------------------x
            x  O                 1         0.555319   0.944685   0.249994   x
            x  O                 2         0.944685   0.249994   0.555319   x
            x  O                 3         0.249994   0.555319   0.944685   x
            x  O                 4         0.055315   0.750006   0.444681   x
            x  O                 5         0.750006   0.444681   0.055315   x
            x  O                 6         0.444681   0.055315   0.750006   x
            x  Al                1         0.148959   0.148959   0.148959   x
            x  Al                2         0.648982   0.648982   0.648982   x
            x  Al                3         0.851041   0.851041   0.851041   x
            x  Al                4         0.351018   0.351018   0.351018   x
            xxxxxxxxxxxxxxxxxxxxxxxxxxxxxxxxxxxxxxxxxxxxxxxxxxxxxxxxxxxxxxxxx


------------------------------------------------------------------------ <-- SCF
SCF loop      Energy           Fermi           Energy gain       Timer   <-- SCF
                               energy          per atom          (sec)   <-- SCF
------------------------------------------------------------------------ <-- SCF
Initial  -2.82291550E+003  0.00000000E+000                        52.10  <-- SCF
      1  -2.82719691E+003  2.75930232E+000   4.28141058E-001      52.70  <-- SCF
      2  -2.82722236E+003  2.76150287E+000   2.54492355E-003      53.47  <-- SCF
      3  -2.82672230E+003  3.10616163E+000  -5.00061283E-002      54.13  <-- SCF
      4  -2.82670461E+003  2.99490641E+000  -1.76826448E-003      54.86  <-- SCF
      5  -2.82670397E+003  3.01869426E+000  -6.47272309E-005      55.56  <-- SCF
      6  -2.82670402E+003  3.02029084E+000   5.26461364E-006      56.10  <-- SCF
[...]
 |  previous  |    0.000000 |    0.003283 |    -2827.139509 | <-- min LBFGS
 | trial step |    1.000000 |   -0.000541 |    -2827.146803 | <-- min LBFGS
 +------------+-------------+-------------+-----------------+ <-- min LBFGS
  
 LBFGS: finished iteration    48 with enthalpy= -2.82714680E+003 eV
  
 +-----------+-----------------+-----------------+------------+-----+ <-- LBFGS
 | Parameter |      value      |    tolerance    |    units   | OK? | <-- LBFGS
 +-----------+-----------------+-----------------+------------+-----+ <-- LBFGS
 |  dE/ion   |   7.294517E-004 |   1.000000E-005 |         eV | No  | <-- LBFGS
 |  |F|max   |   7.125979E-003 |   1.000000E-002 |       eV/A | Yes | <-- LBFGS
 |  |dR|max  |   2.608378E-003 |   1.000000E-003 |          A | No  | <-- LBFGS
 |   Smax    |   6.139988E-002 |   1.000000E-001 |        GPa | Yes | <-- LBFGS
 +-----------+-----------------+-----------------+------------+-----+ <-- LBFGS
  

================================================================================
 Starting LBFGS iteration         49 ...
================================================================================
  
 +------------+-------------+-------------+-----------------+ <-- min LBFGS
 |    Step    |   lambda    |   F.delta'  |    enthalpy     | <-- min LBFGS
 +------------+-------------+-------------+-----------------+ <-- min LBFGS
 |  previous  |    0.000000 |    0.002634 |    -2827.146803 | <-- min LBFGS
 +------------+-------------+-------------+-----------------+ <-- min LBFGS
  

--------------------------------------------------------------------------------
 LBFGS: starting iteration        49 with trial guess (lambda=  1.000000)
--------------------------------------------------------------------------------

                           -------------------------------
                                      Unit Cell
                           -------------------------------
        Real Lattice(A)              Reciprocal Lattice(1/A)
     2.8568342     1.6493938     5.0527461        1.099676220   0.634898345   0.414506341
    -2.8568342     1.6493938     5.0527461       -1.099676222   0.634898357   0.414506328
    -0.0000000    -3.2987882     5.0527459        0.000000009  -1.269796747   0.414506254

                       Lattice parameters(A)       Cell Angles
                    a =      6.034256          alpha =   56.515138
                    b =      6.034256          beta  =   56.515139
                    c =      6.034256          gamma =   56.515139

                Current cell volume =           142.852606 A**3
                            density =             1.427503 amu/A**3
                                    =             2.370425 g/cm^3

                           -------------------------------
                                     Cell Contents
                           -------------------------------

            xxxxxxxxxxxxxxxxxxxxxxxxxxxxxxxxxxxxxxxxxxxxxxxxxxxxxxxxxxxxxxxxx
            x  Element         Atom        Fractional coordinates of atoms  x
            x                 Number           u          v          w      x
            x---------------------------------------------------------------x
            x  O                 1         0.547326   0.952232   0.250204   x
            x  O                 2         0.952232   0.250204   0.547326   x
            x  O                 3         0.250204   0.547326   0.952232   x
            x  O                 4         0.047768   0.749796   0.452674   x
            x  O                 5         0.749796   0.452674   0.047768   x
            x  O                 6         0.452674   0.047768   0.749796   x
            x  Al                1         0.152541   0.152541   0.152541   x
            x  Al                2         0.653011   0.653011   0.653010   x
            x  Al                3         0.847459   0.847459   0.847459   x
            x  Al                4         0.346990   0.346989   0.346989   x
            xxxxxxxxxxxxxxxxxxxxxxxxxxxxxxxxxxxxxxxxxxxxxxxxxxxxxxxxxxxxxxxxx


------------------------------------------------------------------------ <-- SCF
SCF loop      Energy           Fermi           Energy gain       Timer   <-- SCF
                               energy          per atom          (sec)   <-- SCF
------------------------------------------------------------------------ <-- SCF
Initial  -2.82698416E+003  0.00000000E+000                       410.70  <-- SCF
      1  -2.82698924E+003  3.02467810E+000   5.07286129E-004     411.30  <-- SCF
      2  -2.82698924E+003  3.02467809E+000   5.53763715E-008     411.75  <-- SCF
      3  -2.82698921E+003  3.02624178E+000  -2.83808263E-006     412.19  <-- SCF
      4  -2.82698921E+003  3.02578729E+000   1.03902018E-008     412.63  <-- SCF
------------------------------------------------------------------------ <-- SCF
 
Final energy, E             =  -2826.984261639     eV
Final free energy (E-TS)    =  -2826.989210102     eV
(energies not corrected for finite basis set)
 
NB est. 0K energy (E-0.5TS)      =  -2826.986735871     eV
 

 ************************************** Forces **************************************
 *                                                                                  *
 *                           Cartesian components (eV/A)                            *
 * -------------------------------------------------------------------------------- *
 *                         x                    y                    z              *
 *                                                                                  *
 * O               1      0.00603             -0.00225             -0.00157         *
 * O               2     -0.00497             -0.00410             -0.00157         *
 * O               3     -0.00107              0.00635             -0.00157         *
 * O               4      0.00497              0.00409              0.00157         *
 * O               5      0.00106             -0.00635              0.00157         *
 * O               6     -0.00603              0.00225              0.00157         *
 * Al              1     -0.00000              0.00000              0.00239         *
 * Al              2      0.00000             -0.00000              0.00414         *
 * Al              3      0.00000             -0.00000             -0.00239         *
 * Al              4     -0.00000              0.00000             -0.00414         *
 *                                                                                  *
 ************************************************************************************

 ***************** Stress Tensor *****************
 *                                               *
 *          Cartesian components (GPa)           *
 * --------------------------------------------- *
 *             x             y             z     *
 *                                               *
 *  x      0.012486      0.000001     -0.000000  *
 *  y      0.000001      0.012485      0.000000  *
 *  z     -0.000000      0.000000     -0.026080  *
 *                                               *
 *  Pressure:    0.0004                          *
 *                                               *
 *************************************************
  
 +------------+-------------+-------------+-----------------+ <-- min LBFGS
 |    Step    |   lambda    |   F.delta'  |    enthalpy     | <-- min LBFGS
 +------------+-------------+-------------+-----------------+ <-- min LBFGS
 |  previous  |    0.000000 |    0.002634 |    -2827.146803 | <-- min LBFGS
 | trial step |    1.000000 |    0.001578 |    -2827.146820 | <-- min LBFGS
 +------------+-------------+-------------+-----------------+ <-- min LBFGS
  
 LBFGS: finished iteration    49 with enthalpy= -2.82714682E+003 eV
  
 +-----------+-----------------+-----------------+------------+-----+ <-- LBFGS
 | Parameter |      value      |    tolerance    |    units   | OK? | <-- LBFGS
 +-----------+-----------------+-----------------+------------+-----+ <-- LBFGS
 |  dE/ion   |   1.710658E-006 |   1.000000E-005 |         eV | Yes | <-- LBFGS
 |  |F|max   |   6.630978E-003 |   1.000000E-002 |       eV/A | Yes | <-- LBFGS
 |  |dR|max  |   2.454583E-004 |   1.000000E-003 |          A | Yes | <-- LBFGS
 |   Smax    |   2.607968E-002 |   1.000000E-001 |        GPa | Yes | <-- LBFGS
 +-----------+-----------------+-----------------+------------+-----+ <-- LBFGS
  
 LBFGS: Geometry optimization completed successfully.

================================================================================
 LBFGS: Final Configuration:
================================================================================

                           -------------------------------
                                      Unit Cell
                           -------------------------------
        Real Lattice(A)              Reciprocal Lattice(1/A)
     2.8568342     1.6493938     5.0527461        1.099676220   0.634898345   0.414506341
    -2.8568342     1.6493938     5.0527461       -1.099676222   0.634898357   0.414506328
    -0.0000000    -3.2987882     5.0527459        0.000000009  -1.269796747   0.414506254

                       Lattice parameters(A)       Cell Angles
                    a =      6.034256          alpha =   56.515138
                    b =      6.034256          beta  =   56.515139
                    c =      6.034256          gamma =   56.515139

                Current cell volume =           142.852606 A**3
                            density =             1.427503 amu/A**3
                                    =             2.370425 g/cm^3

                           -------------------------------
                                     Cell Contents
                           -------------------------------

            xxxxxxxxxxxxxxxxxxxxxxxxxxxxxxxxxxxxxxxxxxxxxxxxxxxxxxxxxxxxxxxxx
            x  Element         Atom        Fractional coordinates of atoms  x
            x                 Number           u          v          w      x
            x---------------------------------------------------------------x
            x  O                 1         0.547326   0.952232   0.250204   x
            x  O                 2         0.952232   0.250204   0.547326   x
            x  O                 3         0.250204   0.547326   0.952232   x
            x  O                 4         0.047768   0.749796   0.452674   x
            x  O                 5         0.749796   0.452674   0.047768   x
            x  O                 6         0.452674   0.047768   0.749796   x
            x  Al                1         0.152541   0.152541   0.152541   x
            x  Al                2         0.653011   0.653011   0.653010   x
            x  Al                3         0.847459   0.847459   0.847459   x
            x  Al                4         0.346990   0.346989   0.346989   x
            xxxxxxxxxxxxxxxxxxxxxxxxxxxxxxxxxxxxxxxxxxxxxxxxxxxxxxxxxxxxxxxxx


 LBFGS: Final Enthalpy     = -2.82714682E+003 eV
 LBFGS: Final <frequency>  =    1056.47729 cm-1
 LBFGS: Final bulk modulus =     100.12861 GPa
  
  **********************************************************
  *** There were at least     1 warnings during this run ***
  *** => please check the whole of this file carefully!  ***
  **********************************************************

 ************************************** Forces **************************************
 *                                                                                  *
 *                           Cartesian components (eV/A)                            *
 * -------------------------------------------------------------------------------- *
 *                         x                    y                    z              *
 *                                                                                  *
 * O               1      0.00603             -0.00225             -0.00157         *
 * O               2     -0.00497             -0.00410             -0.00157         *
 * O               3     -0.00107              0.00635             -0.00157         *
 * O               4      0.00497              0.00409              0.00157         *
 * O               5      0.00106             -0.00635              0.00157         *
 * O               6     -0.00603              0.00225              0.00157         *
 * Al              1     -0.00000              0.00000              0.00239         *
 * Al              2      0.00000             -0.00000              0.00414         *
 * Al              3      0.00000             -0.00000             -0.00239         *
 * Al              4     -0.00000              0.00000             -0.00414         *
 *                                                                                  *
 ************************************************************************************

 ***************** Stress Tensor *****************
 *                                               *
 *          Cartesian components (GPa)           *
 * --------------------------------------------- *
 *             x             y             z     *
 *                                               *
 *  x      0.012486      0.000001     -0.000000  *
 *  y      0.000001      0.012485      0.000000  *
 *  z     -0.000000      0.000000     -0.026080  *
 *                                               *
 *  Pressure:    0.0004                          *
 *                                               *
 *************************************************

 Pseudo atomic calculation performed for O 2s2 2p4

 Converged in 20 iterations to a total energy of -389.3106 eV

 Pseudo atomic calculation performed for Al 3s2 3p1

 Converged in 11 iterations to a total energy of -105.9118 eV
Charge spilling parameter for spin component 1 = 0.65%

            Orbital Populations       
     Ion    Atom   Orbital             Charge
  -------------------------------------------
      O     1      S                    1.967
      O     1      Px                   1.588
      O     1      Py                   1.641
      O     1      Pz                   1.620
      O     2      S                    1.967
      O     2      Px                   1.628
      O     2      Py                   1.601
      O     2      Pz                   1.620
      O     3      S                    1.967
      O     3      Px                   1.627
      O     3      Py                   1.601
      O     3      Pz                   1.620
      O     4      S                    1.967
      O     4      Px                   1.628
      O     4      Py                   1.601
      O     4      Pz                   1.620
      O     5      S                    1.967
      O     5      Px                   1.627
      O     5      Py                   1.601
      O     5      Pz                   1.620
      O     6      S                    1.967
      O     6      Px                   1.588
      O     6      Py                   1.641
      O     6      Pz                   1.620
     Al     1      S                    0.813
     Al     1      Px                   0.322
     Al     1      Py                   0.322
     Al     1      Pz                   0.320
     Al     2      S                    0.812
     Al     2      Px                   0.323
     Al     2      Py                   0.323
     Al     2      Pz                   0.320
     Al     3      S                    0.813
     Al     3      Px                   0.322
     Al     3      Py                   0.322
     Al     3      Pz                   0.320
     Al     4      S                    0.812
     Al     4      Px                   0.323
     Al     4      Py                   0.323
     Al     4      Pz                   0.320
  -------------------------------------------
                           Total:      48.000
  -------------------------------------------

     Atomic Populations (Mulliken)
     -----------------------------
Species          Ion     s      p      d      f     Total  Charge (e)
=====================================================================
  O               1     1.97   4.85   0.00   0.00   6.81    -0.81
  O               2     1.97   4.85   0.00   0.00   6.81    -0.81
  O               3     1.97   4.85   0.00   0.00   6.81    -0.81
  O               4     1.97   4.85   0.00   0.00   6.81    -0.81
  O               5     1.97   4.85   0.00   0.00   6.81    -0.81
  O               6     1.97   4.85   0.00   0.00   6.81    -0.81
  Al              1     0.81   0.96   0.00   0.00   1.78     1.22
  Al              2     0.81   0.97   0.00   0.00   1.78     1.22
  Al              3     0.81   0.96   0.00   0.00   1.78     1.22
  Al              4     0.81   0.97   0.00   0.00   1.78     1.22
=====================================================================

                 Bond                   Population      Length (A)
======================================================================
               O 6 -- Al 2                   0.30        2.24840
               O 1 -- Al 4                   0.30        2.24840
               O 4 -- Al 2                   0.30        2.24840
               O 2 -- Al 4                   0.30        2.24840
               O 5 -- Al 2                   0.30        2.24840
               O 3 -- Al 4                   0.30        2.24840
               O 2 -- Al 1                   0.30        2.25149
               O 4 -- Al 3                   0.30        2.25149
               O 6 -- Al 3                   0.30        2.25149
               O 1 -- Al 1                   0.30        2.25149
               O 5 -- Al 3                   0.30        2.25149
               O 3 -- Al 1                   0.30        2.25149
               O 2 -- Al 3                   0.31        2.27183
               O 3 -- Al 3                   0.31        2.27183
               O 5 -- Al 1                   0.31        2.27183
               O 4 -- Al 1                   0.31        2.27183
               O 1 -- Al 3                   0.31        2.27183
               O 6 -- Al 1                   0.31        2.27183
               O 5 -- Al 4                   0.31        2.27421
               O 3 -- Al 2                   0.31        2.27421
               O 1 -- Al 2                   0.31        2.27421
               O 6 -- Al 4                   0.31        2.27421
               O 4 -- Al 4                   0.31        2.27421
               O 2 -- Al 2                   0.31        2.27421
               O 4 -- O 6                   -0.15        2.94463
               O 5 -- O 6                   -0.15        2.94463
               O 4 -- O 5                   -0.15        2.94463
               O 1 -- O 2                   -0.15        2.94463
               O 1 -- O 3                   -0.15        2.94463
               O 2 -- O 3                   -0.15        2.94463
              Al 2 -- Al 3                  -0.31        2.94750
              Al 1 -- Al 4                  -0.31        2.94750
======================================================================


Writing analysis data to al2o3_xc-PBESOL_c-0200_k-5x5x5_geom.castep_bin

Writing model to al2o3_xc-PBESOL_c-0200_k-5x5x5_geom.check
 
 A BibTeX formatted list of references used in this run has been written to 
 al2o3_xc-PBESOL_c-0200_k-5x5x5_geom.bib
 
Initialisation time =      7.28 s
Calculation time    =    407.82 s
Finalisation time   =      0.07 s
Total time          =    415.17 s
Peak Memory Use     = 569920 kB
  
Overall parallel efficiency rating: Excellent (95%)                             
  
Data was distributed by:-
k-point (9-way); efficiency rating: Excellent (97%)                             
  
Parallel notes:
1) Calculation only took 415.1 s, so efficiency estimates may be inaccurate.    
