 +-------------------------------------------------+
 |                                                 |
 |      CCC   AA    SSS  TTTTT  EEEEE  PPPP        |
 |     C     A  A  S       T    E      P   P       |
 |     C     AAAA   SS     T    EEE    PPPP        |
 |     C     A  A     S    T    E      P           |
 |      CCC  A  A  SSS     T    EEEEE  P           |
 |                                                 |
 +-------------------------------------------------+
 |                                                 |
 | Welcome to Academic Release CASTEP version 19.11|          
 | Ab Initio Total Energy Program                  |
 |                                                 |
 | Authors:                                        |
 | M. Segall, M. Probert, C. Pickard, P. Hasnip,   |
 | S. Clark, K. Refson, J. R. Yates, M. Payne      |
 |                                                 |
 | Contributors:                                   |
 | P. Lindan, P. Haynes, J. White, V. Milman,      |
 | N. Govind, M. Gibson, P. Tulip, V. Cocula,      |
 | B. Montanari, D. Quigley, M. Glover,            |
 | L. Bernasconi, A. Perlov, M. Plummer,           |
 | E. McNellis, J. Meyer, J. Gale, D. Jochym       |
 | J. Aarons, B. Walker, R. Gillen, D. Jones       |
 | T. Green, I. J. Bush, C. J. Armstrong,          |
 | E. J. Higgins, E. L. Brown, M. S. McFly,        |
 | J. Wilkins, B-C. Shih, P. J. P. Byrne           |
 |                                                 |
 | Copyright (c) 2000 - 2018                       |
 |                                                 |
 |     Distributed under the terms of an           |
 |     Agreement between the United Kingdom        |
 |     Car-Parrinello (UKCP) Consortium,           |
 |     Daresbury Laboratory and Accelrys, Inc.     |
 |                                                 |
 | Please cite                                     |
 |                                                 |
 |     "First principles methods using CASTEP"     |
 |                                                 |
 |         Zeitschrift fuer Kristallographie       |
 |           220(5-6) pp. 567-570 (2005)           |
 |                                                 |
 | S. J. Clark, M. D. Segall, C. J. Pickard,       |
 | P. J. Hasnip, M. J. Probert, K. Refson,         |
 | M. C. Payne                                     |
 |                                                 |
 |       in all publications arising from          |
 |              your use of CASTEP                 |
 |                                                 |
 +-------------------------------------------------+
 |                                                 |
 |              http://www.castep.org              |
 |                                                 |
 +-------------------------------------------------+



 Compiled for linux_x86_64_gfortran7.0 on Fri, 31 Jan 2020 20:20:28 +0100
 from code version e1fe0d666396+ Castep191_branch Thu, 24 Oct 2019 13:54:03 +0100
 Compiler: GNU Fortran 7.4.0; Optimisation: fast
 MATHLIBS: default (LAPACK version 3.7.1)
 FFT Lib : default
 Fundamental constants values: CODATA 2014

 Run started: Mon, 08 Nov 2021 10:52:33 +0100

 Atomic calculation performed for O: 1s2 2s2 2p4

 Converged in 60 iterations to an ae energy of -2027.926 eV

   ============================================================                
   | Pseudopotential Report - Date of generation  8-11-2021   |                
   ------------------------------------------------------------                
   | Element: O Ionic charge:  6.00 Level of theory: LDA      |                
   | Atomic Solver: Koelling-Harmon                           |                
   |                                                          |                
   |               Reference Electronic Structure             |                
   |         Orbital         Occupation         Energy        |                
   |            2s              2.000           -0.873        |                
   |            2p              4.000           -0.338        |                
   |                                                          |                
   |                 Pseudopotential Definition               |                
   |        Beta     l      e      Rc     scheme   norm       |                
   |          1      0   -0.873   1.100     qc      0         |                
   |          2      0    0.250   1.100     qc      0         |                
   |          3      1   -0.338   1.100     qc      0         |                
   |          4      1    0.250   1.100     qc      0         |                
   |         loc     2    0.000   1.100     pn      0         |                
   |                                                          |                
   | Augmentation charge Rinner = 0.769                       |                
   | Partial core correction Rc = 0.769                       |                
   ------------------------------------------------------------                
   | "2|1.1|17|20|23|20:21(qc=8)"                             |                
   ------------------------------------------------------------                
   |      Author: Chris J. Pickard, Cambridge University      |                
   ============================================================                

 Atomic calculation performed for Al: 1s2 2s2 2p6 3s2 3p1

 Converged in 55 iterations to an ae energy of -6578.725 eV

   ============================================================                
   | Pseudopotential Report - Date of generation  8-11-2021   |                
   ------------------------------------------------------------                
   | Element: Al Ionic charge:  3.00 Level of theory: LDA     |                
   | Atomic Solver: Koelling-Harmon                           |                
   |                                                          |                
   |               Reference Electronic Structure             |                
   |         Orbital         Occupation         Energy        |                
   |            3s              2.000           -0.288        |                
   |            3p              1.000           -0.102        |                
   |                                                          |                
   |                 Pseudopotential Definition               |                
   |        Beta     l      e      Rc     scheme   norm       |                
   |          1      0   -0.288   2.192     qc      0         |                
   |          2      0    0.250   2.192     qc      0         |                
   |          3      1   -0.102   2.192     qc      0         |                
   |          4      1    0.250   2.192     qc      0         |                
   |          5      2    0.000   2.000     qc      0         |                
   |          6      2    0.250   2.000     qc      0         |                
   |         loc     3    0.000   2.192     pn      0         |                
   |                                                          |                
   | Augmentation charge Rinner = 1.398                       |                
   | Partial core correction Rc = 1.398                       |                
   ------------------------------------------------------------                
   | "3|2.2|2.2|1.4|4|5|5|30:31:32U2U2"                       |                
   ------------------------------------------------------------                
   |      Author: Chris J. Pickard, Cambridge University      |                
   ============================================================                

 Pseudo atomic calculation performed for O 2s2 2p4

 Converged in 24 iterations to a total energy of -431.3978 eV

 Pseudo atomic calculation performed for Al 3s2 3p1

 Converged in 15 iterations to a total energy of -105.5956 eV
 Calculation parallelised over 9 processes.
 Data is distributed by k-point(9-way)

 ************************************ Title ************************************
 

 ***************************** General Parameters ******************************
  
 output verbosity                               : normal  (1)
 write checkpoint data to                       : al2o3_xc-LDA_c-1000_k-5x5x5_geom.check
 type of calculation                            : geometry optimization
 stress calculation                             : off
 density difference calculation                 : off
 electron localisation func (ELF) calculation   : off
 Hirshfeld analysis                             : off
 unlimited duration calculation
 timing information                             : on
 memory usage estimate                          : on
 write extra output files                       : on
 write final potential to formatted file        : off
 write final density to formatted file          : off
 write structure in CIF formatted file          : on
 write structure in CELL formatted file         : on
 write BibTeX reference list                    : on
 write OTFG pseudopotential files               : on
 write electrostatic potential file             : on
 write bands file                               : on
 checkpoint writing                             : both castep_bin and check files
  
 output         length unit                     : A
 output           mass unit                     : amu
 output           time unit                     : ps
 output         charge unit                     : e
 output           spin unit                     : hbar/2
 output         energy unit                     : eV
 output          force unit                     : eV/A
 output       velocity unit                     : A/ps
 output       pressure unit                     : GPa
 output     inv_length unit                     : 1/A
 output      frequency unit                     : cm-1
 output force constant unit                     : eV/A**2
 output         volume unit                     : A**3
 output   IR intensity unit                     : (D/A)**2/amu
 output         dipole unit                     : D
 output         efield unit                     : eV/A/e
 output        entropy unit                     : J/mol/K
  
 wavefunctions paging                           : none
 random number generator seed                   : randomised (105233802)
 data distribution                              : optimal for this architecture
 optimization strategy                          : maximize speed(+++)

 *********************** Exchange-Correlation Parameters ***********************
  
 using functional                               : Local Density Approximation
 relativistic treatment                         : Koelling-Harmon
 DFT+D: Semi-empirical dispersion correction    : off

 ************************* Pseudopotential Parameters **************************
  
 pseudopotential representation                 : reciprocal space
 <beta|phi> representation                      : reciprocal space
 spin-orbit coupling                            : off

 **************************** Basis Set Parameters *****************************
  
 plane wave basis set cut-off                   :  1000.0000   eV
 size of standard grid                          :     1.7500
 size of   fine   gmax                          :    28.3515   1/A
 finite basis set correction                    : automatic
 number of sample energies                      :          3
           sample  spacing                      :     5.0000   eV

 **************************** Electronic Parameters ****************************
  
 number of  electrons                           :  48.00    
 net charge of system                           :  0.000    
 treating system as non-spin-polarized
 number of bands                                :         29

 ********************* Electronic Minimization Parameters **********************
  
 Method: Treating system as metallic with density mixing treatment of electrons,
         and number of  SD  steps               :          1
         and number of  CG  steps               :          4
  
 total energy / atom convergence tol.           : 0.1000E-04   eV
 eigen-energy convergence tolerance             : 0.1000E-05   eV
 max force / atom convergence tol.              : ignored
 convergence tolerance window                   :          3   cycles
 max. number of SCF cycles                      :         30
 number of fixed-spin iterations                :         10
 smearing scheme                                : Gaussian
 smearing width                                 : 0.2000       eV
 Fermi energy convergence tolerance             : 0.2721E-13   eV
 periodic dipole correction                     : NONE

 ************************** Density Mixing Parameters **************************
  
 density-mixing scheme                          : Broyden
 max. length of mixing history                  :         20
 charge density mixing amplitude                : 0.8000    
 cut-off energy for mixing                      :  1000.       eV

 *********************** Population Analysis Parameters ************************
  
 Population analysis with cutoff                :  3.000       A
 Population analysis output                     : summary and pdos components

 ********************** Geometry Optimization Parameters ***********************
  
 optimization method                            : LBFGS
 max. no. of LBFGS updates                      : unbounded
 variable cell method                           : fixed basis quality
 max. number of steps                           :        150
 estimated bulk modulus                         :  500.0       GPa
 estimated <frequency>                          :  1668.       cm-1
 geom line minimiser                            : on
 with line minimiser tolerance                  :     0.4000
 total energy convergence tolerance             : 0.1000E-04   eV/atom
        max ionic |force| tolerance             : 0.1000E-01   eV/A
 max ionic |displacement| tolerance             : 0.1000E-02   A
   max |stress component| tolerance             : 0.1000       GPa
 convergence tolerance window                   :          2   steps
 backup results every                           :          5   steps
 write geom trajectory file                     : on

 *******************************************************************************
  

                           -------------------------------
                                      Unit Cell
                           -------------------------------
        Real Lattice(A)                      Reciprocal Lattice(1/A)
     2.3801000     1.3741510     4.3310000        1.319941454   0.762068577   0.483582396
    -2.3801000     1.3741510     4.3310000       -1.319941454   0.762068577   0.483582396
     0.0000000    -2.7483030     4.3310000       -0.000000000  -1.524137154   0.483582220

                       Lattice parameters(A)       Cell Angles
                    a =      5.129398          alpha =   55.292535
                    b =      5.129398          beta  =   55.292535
                    c =      5.129399          gamma =   55.292537

                       Current cell volume =            84.990269       A**3
                                   density =             2.399364   AMU/A**3
                                           =             3.984237     g/cm^3

                           -------------------------------
                                     Cell Contents
                           -------------------------------
                         Total number of ions in cell =   10
                      Total number of species in cell =    2
                        Max number of any one species =    6

            xxxxxxxxxxxxxxxxxxxxxxxxxxxxxxxxxxxxxxxxxxxxxxxxxxxxxxxxxxxx
            x  Element    Atom        Fractional coordinates of atoms  x
            x            Number           u          v          w      x
            x----------------------------------------------------------x
            x  O            1         0.556260   0.943740   0.250000   x 
            x  O            2         0.943740   0.250000   0.556260   x 
            x  O            3         0.250000   0.556260   0.943740   x 
            x  O            4         0.056260   0.750000   0.443740   x 
            x  O            5         0.750000   0.443740   0.056260   x 
            x  O            6         0.443740   0.056260   0.750000   x 
            x  Al           1         0.147900   0.147900   0.147900   x 
            x  Al           2         0.647900   0.647900   0.647900   x 
            x  Al           3         0.852100   0.852100   0.852100   x 
            x  Al           4         0.352100   0.352100   0.352100   x 
            xxxxxxxxxxxxxxxxxxxxxxxxxxxxxxxxxxxxxxxxxxxxxxxxxxxxxxxxxxxx


                         No user defined ionic velocities

                           -------------------------------
                                   Details of Species
                           -------------------------------

                               Mass of species in AMU
                                    O   15.9994000
                                    Al   26.9815400

                          Electric Quadrupole Moment (Barn)
                                    O   -0.0255800 Isotope 17
                                    Al    0.1466000 Isotope 27

                          Files used for pseudopotentials:
                                    O 2|1.1|17|20|23|20:21(qc=8)
                                    Al 3|2.2|2.2|1.4|4|5|5|30:31:32U2U2

                           -------------------------------
                              k-Points For BZ Sampling
                           -------------------------------
                       MP grid size for SCF calculation is  5  5  5
                            with an offset of   0.000  0.000  0.000
                       Number of kpoints used =            63

                           -------------------------------
                               Symmetry and Constraints
                           -------------------------------

                      Maximum deviation from symmetry =  0.00000         ANG

                      Number of symmetry operations   =           1
                      Number of ionic constraints     =           3
                      Point group of crystal =     1: C1, 1, 1
                      Space group of crystal =   167: R-3c, -R 3 2"c

             Set iprint > 1 for details on symmetry rotations/translations

                         Centre of mass is constrained
             Set iprint > 1 for details of linear ionic constraints

                         Number of cell constraints= 0
                         Cell constraints are:  1 2 3 4 5 6

                         External pressure/stress (GPa)
                          0.00000   0.00000   0.00000
                                    0.00000   0.00000
                                              0.00000
  
+---------------- MEMORY AND SCRATCH DISK ESTIMATES PER PROCESS --------------+
|                                                     Memory          Disk    |
| Baseline code, static data and system overhead      196.0 MB         0.0 MB |
| BLAS internal memory storage                          0.0 MB         0.0 MB |
| Model and support data                              262.3 MB         0.0 MB |
| Electronic energy minimisation requirements          74.0 MB         0.0 MB |
| Force calculation requirements                       16.0 MB         0.0 MB |
|                                               ----------------------------- |
| Approx. total storage required per process          532.3 MB         0.0 MB |
|                                                                             |
| Requirements will fluctuate during execution and may exceed these estimates |
+-----------------------------------------------------------------------------+
Calculating finite basis set correction with  3 cut-off energies.
Calculating total energy with cut-off of  990.000 eV.
------------------------------------------------------------------------ <-- SCF
SCF loop      Energy           Fermi           Energy gain       Timer   <-- SCF
                               energy          per atom          (sec)   <-- SCF
------------------------------------------------------------------------ <-- SCF
Initial  -2.25227297E+003  0.00000000E+000                        10.14  <-- SCF
      1  -2.90594395E+003  9.68486006E+000   6.53670986E+001      19.02  <-- SCF
      2  -3.09749422E+003  2.68906121E+000   1.91550269E+001      26.50  <-- SCF
      3  -3.10241781E+003  2.80166872E+000   4.92358432E-001      33.56  <-- SCF
      4  -3.09816308E+003  6.96405595E+000  -4.25472872E-001      42.74  <-- SCF
      5  -3.09425340E+003  5.31542496E+000  -3.90968055E-001      51.87  <-- SCF
      6  -3.09423936E+003  5.41255553E+000  -1.40324212E-003      60.85  <-- SCF
      7  -3.09423858E+003  5.46225869E+000  -7.86516875E-005      68.92  <-- SCF
      8  -3.09423860E+003  5.45677060E+000   1.94120428E-006      76.59  <-- SCF
      9  -3.09423859E+003  5.45477417E+000  -6.36091015E-007      82.46  <-- SCF
------------------------------------------------------------------------ <-- SCF
 
Final energy, E             =  -3094.238591118     eV
Final free energy (E-TS)    =  -3094.238591118     eV
(energies not corrected for finite basis set)
 
NB est. 0K energy (E-0.5TS)      =  -3094.238591118     eV
 
Calculating total energy with cut-off of  995.000 eV.
------------------------------------------------------------------------ <-- SCF
SCF loop      Energy           Fermi           Energy gain       Timer   <-- SCF
                               energy          per atom          (sec)   <-- SCF
------------------------------------------------------------------------ <-- SCF
Initial  -3.09423859E+003  0.00000000E+000                        84.96  <-- SCF
      1  -3.09423862E+003  5.45487007E+000   2.77248976E-006      90.46  <-- SCF
      2  -3.09423862E+003  5.45487005E+000   3.03864418E-007      96.12  <-- SCF
      3  -3.09423862E+003  5.45549668E+000  -2.69329857E-008     101.67  <-- SCF
      4  -3.09423862E+003  5.45542478E+000   4.43986995E-008     107.16  <-- SCF
------------------------------------------------------------------------ <-- SCF
 
Final energy, E             =  -3094.238620704     eV
Final free energy (E-TS)    =  -3094.238620704     eV
(energies not corrected for finite basis set)
 
NB est. 0K energy (E-0.5TS)      =  -3094.238620704     eV
 
Calculating total energy with cut-off of 1000.000 eV.
------------------------------------------------------------------------ <-- SCF
SCF loop      Energy           Fermi           Energy gain       Timer   <-- SCF
                               energy          per atom          (sec)   <-- SCF
------------------------------------------------------------------------ <-- SCF
Initial  -3.09423862E+003  0.00000000E+000                       109.53  <-- SCF
      1  -3.09423865E+003  5.45558842E+000   3.03708880E-006     114.77  <-- SCF
      2  -3.09423865E+003  5.45558839E+000   1.07567635E-007     120.00  <-- SCF
      3  -3.09423865E+003  5.45546503E+000   2.23806333E-008     125.22  <-- SCF
      4  -3.09423865E+003  5.45548880E+000   3.91886528E-009     130.47  <-- SCF
------------------------------------------------------------------------ <-- SCF
 
Final energy, E             =  -3094.238652366     eV
Final free energy (E-TS)    =  -3094.238652366     eV
(energies not corrected for finite basis set)
 
NB est. 0K energy (E-0.5TS)      =  -3094.238652366     eV
 
 For future reference: finite basis dEtot/dlog(Ecut) =      -0.005988eV
 Total energy corrected for finite basis set =   -3094.238652 eV
 
+---------------- MEMORY AND SCRATCH DISK ESTIMATES PER PROCESS --------------+
|                                                     Memory          Disk    |
| Model and support data                              269.1 MB         0.0 MB |
| Electronic energy minimisation requirements          74.0 MB         0.0 MB |
| Geometry minimisation requirements                   95.2 MB         0.0 MB |
|                                               ----------------------------- |
| Approx. total storage required per process          438.3 MB         0.0 MB |
|                                                                             |
| Requirements will fluctuate during execution and may exceed these estimates |
+-----------------------------------------------------------------------------+
 

 ************************************** Forces **************************************
 *                                                                                  *
 *                           Cartesian components (eV/A)                            *
 * -------------------------------------------------------------------------------- *
 *                         x                    y                    z              *
 *                                                                                  *
 * O               1     -0.07483              0.00001             -0.00000         *
 * O               2      0.03742              0.06481              0.00000         *
 * O               3      0.03740             -0.06478             -0.00000         *
 * O               4     -0.03741             -0.06480              0.00000         *
 * O               5     -0.03739              0.06476              0.00000         *
 * O               6      0.07480             -0.00000             -0.00000         *
 * Al              1     -0.00001              0.00001              0.03127         *
 * Al              2      0.00000             -0.00001              0.03130         *
 * Al              3     -0.00000             -0.00001             -0.03130         *
 * Al              4     -0.00000              0.00001             -0.03128         *
 *                                                                                  *
 ************************************************************************************

 ***************** Stress Tensor *****************
 *                                               *
 *          Cartesian components (GPa)           *
 * --------------------------------------------- *
 *             x             y             z     *
 *                                               *
 *  x      5.007540      0.000015      0.000022  *
 *  y      0.000015      5.007535     -0.000008  *
 *  z      0.000022     -0.000008      5.272388  *
 *                                               *
 *  Pressure:   -5.0958                          *
 *                                               *
 *************************************************
 LBFGS: finished iteration     0 with enthalpy= -3.09423865E+003 eV
  
 +-----------+-----------------+-----------------+------------+-----+ <-- LBFGS
 | Parameter |      value      |    tolerance    |    units   | OK? | <-- LBFGS
 +-----------+-----------------+-----------------+------------+-----+ <-- LBFGS
 |  dE/ion   |   0.000000E+000 |   1.000000E-005 |         eV | No  | <-- LBFGS
 |  |F|max   |   7.483639E-002 |   1.000000E-002 |       eV/A | No  | <-- LBFGS
 |  |dR|max  |   0.000000E+000 |   1.000000E-003 |          A | No  | <-- LBFGS
 |   Smax    |   5.272388E+000 |   1.000000E-001 |        GPa | No  | <-- LBFGS
 +-----------+-----------------+-----------------+------------+-----+ <-- LBFGS
  

================================================================================
 Starting LBFGS iteration          1 ...
================================================================================
  
 +------------+-------------+-------------+-----------------+ <-- min LBFGS
 |    Step    |   lambda    |   F.delta'  |    enthalpy     | <-- min LBFGS
 +------------+-------------+-------------+-----------------+ <-- min LBFGS
 |  previous  |    0.000000 |    0.173061 |    -3094.238652 | <-- min LBFGS
 +------------+-------------+-------------+-----------------+ <-- min LBFGS
  

--------------------------------------------------------------------------------
 LBFGS: starting iteration         1 with trial guess (lambda=  1.000000)
--------------------------------------------------------------------------------

                           -------------------------------
                                      Unit Cell
                           -------------------------------
        Real Lattice(A)              Reciprocal Lattice(1/A)
     2.3721543     1.3695636     4.3157768        1.324362668   0.764621166   0.485288163
    -2.3721544     1.3695636     4.3157769       -1.324362638   0.764621140   0.485288124
    -0.0000000    -2.7391282     4.3157768       -0.000000008  -1.529242313   0.485287979

                       Lattice parameters(A)       Cell Angles
                    a =      5.111629          alpha =   55.300117
                    b =      5.111629          beta  =   55.300117
                    c =      5.111629          gamma =   55.300119

                Current cell volume =            84.127017 A**3
                            density =             2.423984 amu/A**3
                                    =             4.025120 g/cm^3

                           -------------------------------
                                     Cell Contents
                           -------------------------------

            xxxxxxxxxxxxxxxxxxxxxxxxxxxxxxxxxxxxxxxxxxxxxxxxxxxxxxxxxxxxxxxxx
            x  Element         Atom        Fractional coordinates of atoms  x
            x                 Number           u          v          w      x
            x---------------------------------------------------------------x
            x  O                 1         0.556185   0.943815   0.250000   x
            x  O                 2         0.943816   0.250000   0.556184   x
            x  O                 3         0.250000   0.556185   0.943815   x
            x  O                 4         0.056185   0.750000   0.443815   x
            x  O                 5         0.750000   0.443815   0.056185   x
            x  O                 6         0.443815   0.056185   0.750000   x
            x  Al                1         0.147912   0.147912   0.147912   x
            x  Al                2         0.647912   0.647912   0.647911   x
            x  Al                3         0.852089   0.852089   0.852088   x
            x  Al                4         0.352088   0.352088   0.352088   x
            xxxxxxxxxxxxxxxxxxxxxxxxxxxxxxxxxxxxxxxxxxxxxxxxxxxxxxxxxxxxxxxxx


------------------------------------------------------------------------ <-- SCF
SCF loop      Energy           Fermi           Energy gain       Timer   <-- SCF
                               energy          per atom          (sec)   <-- SCF
------------------------------------------------------------------------ <-- SCF
Initial  -3.09415530E+003  0.00000000E+000                       158.52  <-- SCF
      1  -3.09434158E+003  5.77950195E+000   1.86281058E-002     166.63  <-- SCF
      2  -3.09434254E+003  5.77949884E+000   9.52499789E-005     175.68  <-- SCF
      3  -3.09431049E+003  5.36620562E+000  -3.20470706E-003     184.50  <-- SCF
      4  -3.09425933E+003  5.55741340E+000  -5.11621018E-003     193.38  <-- SCF
      5  -3.09425938E+003  5.55813880E+000   5.67436302E-006     200.18  <-- SCF
      6  -3.09425939E+003  5.55769063E+000   2.69356733E-007     205.30  <-- SCF
------------------------------------------------------------------------ <-- SCF
 
Final energy, E             =  -3094.259385837     eV
Final free energy (E-TS)    =  -3094.259385837     eV
(energies not corrected for finite basis set)
 
NB est. 0K energy (E-0.5TS)      =  -3094.259385837     eV
 

 ************************************** Forces **************************************
 *                                                                                  *
 *                           Cartesian components (eV/A)                            *
 * -------------------------------------------------------------------------------- *
 *                         x                    y                    z              *
 *                                                                                  *
 * O               1     -0.05632             -0.00001             -0.00001         *
 * O               2      0.02813              0.04878              0.00008         *
 * O               3      0.02813             -0.04877             -0.00003         *
 * O               4     -0.02813             -0.04880             -0.00006         *
 * O               5     -0.02813              0.04878             -0.00000         *
 * O               6      0.05631              0.00003              0.00001         *
 * Al              1     -0.00000              0.00001              0.03288         *
 * Al              2      0.00000             -0.00001              0.03289         *
 * Al              3      0.00000             -0.00001             -0.03288         *
 * Al              4      0.00000             -0.00001             -0.03287         *
 *                                                                                  *
 ************************************************************************************

 ***************** Stress Tensor *****************
 *                                               *
 *          Cartesian components (GPa)           *
 * --------------------------------------------- *
 *             x             y             z     *
 *                                               *
 *  x      2.517773      0.000082      0.000087  *
 *  y      0.000082      2.517856     -0.000100  *
 *  z      0.000087     -0.000100      2.907488  *
 *                                               *
 *  Pressure:   -2.6477                          *
 *                                               *
 *************************************************
  
 +------------+-------------+-------------+-----------------+ <-- min LBFGS
 |    Step    |   lambda    |   F.delta'  |    enthalpy     | <-- min LBFGS
 +------------+-------------+-------------+-----------------+ <-- min LBFGS
 |  previous  |    0.000000 |    0.173061 |    -3094.238652 | <-- min LBFGS
 | trial step |    1.000000 |    0.089705 |    -3094.259388 | <-- min LBFGS
 +------------+-------------+-------------+-----------------+ <-- min LBFGS
  

--------------------------------------------------------------------------------
 LBFGS: improving iteration         1 with line minimization (lambda=  2.076175)
--------------------------------------------------------------------------------

                           -------------------------------
                                      Unit Cell
                           -------------------------------
        Real Lattice(A)              Reciprocal Lattice(1/A)
     2.3636033     1.3646267     4.2993940        1.329153874   0.767387370   0.487137362
    -2.3636036     1.3646268     4.2993942       -1.329153813   0.767387315   0.487137279
    -0.0000001    -2.7292544     4.2993941       -0.000000016  -1.534774702   0.487137169

                       Lattice parameters(A)       Cell Angles
                    a =      5.092506          alpha =   55.308336
                    b =      5.092506          beta  =   55.308335
                    c =      5.092506          gamma =   55.308338

                Current cell volume =            83.204557 A**3
                            density =             2.450858 amu/A**3
                                    =             4.069746 g/cm^3

                           -------------------------------
                                     Cell Contents
                           -------------------------------

            xxxxxxxxxxxxxxxxxxxxxxxxxxxxxxxxxxxxxxxxxxxxxxxxxxxxxxxxxxxxxxxxx
            x  Element         Atom        Fractional coordinates of atoms  x
            x                 Number           u          v          w      x
            x---------------------------------------------------------------x
            x  O                 1         0.556104   0.943896   0.250000   x
            x  O                 2         0.943897   0.250000   0.556103   x
            x  O                 3         0.250000   0.556104   0.943896   x
            x  O                 4         0.056103   0.750000   0.443896   x
            x  O                 5         0.750000   0.443897   0.056104   x
            x  O                 6         0.443896   0.056104   0.750000   x
            x  Al                1         0.147924   0.147924   0.147924   x
            x  Al                2         0.647924   0.647924   0.647924   x
            x  Al                3         0.852076   0.852076   0.852076   x
            x  Al                4         0.352076   0.352076   0.352076   x
            xxxxxxxxxxxxxxxxxxxxxxxxxxxxxxxxxxxxxxxxxxxxxxxxxxxxxxxxxxxxxxxxx


------------------------------------------------------------------------ <-- SCF
SCF loop      Energy           Fermi           Energy gain       Timer   <-- SCF
                               energy          per atom          (sec)   <-- SCF
------------------------------------------------------------------------ <-- SCF
Initial  -3.09414510E+003  0.00000000E+000                       232.15  <-- SCF
      1  -3.09436117E+003  5.90750933E+000   2.16071108E-002     240.24  <-- SCF
      2  -3.09436228E+003  5.90750868E+000   1.11325372E-004     249.17  <-- SCF
      3  -3.09432411E+003  5.46441152E+000  -3.81728950E-003     257.98  <-- SCF
      4  -3.09426616E+003  5.66851753E+000  -5.79479698E-003     266.80  <-- SCF
      5  -3.09426621E+003  5.66946883E+000   5.06173984E-006     273.61  <-- SCF
      6  -3.09426622E+003  5.66901368E+000   2.66766056E-007     278.69  <-- SCF
------------------------------------------------------------------------ <-- SCF
 
Final energy, E             =  -3094.266215603     eV
Final free energy (E-TS)    =  -3094.266215603     eV
(energies not corrected for finite basis set)
 
NB est. 0K energy (E-0.5TS)      =  -3094.266215603     eV
 

 ************************************** Forces **************************************
 *                                                                                  *
 *                           Cartesian components (eV/A)                            *
 * -------------------------------------------------------------------------------- *
 *                         x                    y                    z              *
 *                                                                                  *
 * O               1     -0.03519              0.00001              0.00001         *
 * O               2      0.01759              0.03047              0.00003         *
 * O               3      0.01764             -0.03050             -0.00003         *
 * O               4     -0.01761             -0.03051             -0.00003         *
 * O               5     -0.01766              0.03051              0.00002         *
 * O               6      0.03522             -0.00000              0.00001         *
 * Al              1      0.00000              0.00001              0.03357         *
 * Al              2      0.00001              0.00000              0.03357         *
 * Al              3      0.00000             -0.00000             -0.03357         *
 * Al              4     -0.00000              0.00000             -0.03357         *
 *                                                                                  *
 ************************************************************************************

 ***************** Stress Tensor *****************
 *                                               *
 *          Cartesian components (GPa)           *
 * --------------------------------------------- *
 *             x             y             z     *
 *                                               *
 *  x     -0.343933     -0.000039      0.000025  *
 *  y     -0.000039     -0.344216      0.000003  *
 *  z      0.000025      0.000003      0.184585  *
 *                                               *
 *  Pressure:    0.1679                          *
 *                                               *
 *************************************************
  
 +------------+-------------+-------------+-----------------+ <-- min LBFGS
 |    Step    |   lambda    |   F.delta'  |    enthalpy     | <-- min LBFGS
 +------------+-------------+-------------+-----------------+ <-- min LBFGS
 |  previous  |    0.000000 |    0.173061 |    -3094.238652 | <-- min LBFGS
 | trial step |    1.000000 |    0.089705 |    -3094.259388 | <-- min LBFGS
 |  line step |    2.076175 |   -0.004782 |    -3094.266215 | <-- min LBFGS
 +------------+-------------+-------------+-----------------+ <-- min LBFGS
  
 LBFGS: finished iteration     1 with enthalpy= -3.09426621E+003 eV
  
 +-----------+-----------------+-----------------+------------+-----+ <-- LBFGS
 | Parameter |      value      |    tolerance    |    units   | OK? | <-- LBFGS
 +-----------+-----------------+-----------------+------------+-----+ <-- LBFGS
 |  dE/ion   |   2.756302E-003 |   1.000000E-005 |         eV | No  | <-- LBFGS
 |  |F|max   |   3.525580E-002 |   1.000000E-002 |       eV/A | No  | <-- LBFGS
 |  |dR|max  |   7.396946E-004 |   1.000000E-003 |          A | Yes | <-- LBFGS
 |   Smax    |   3.442163E-001 |   1.000000E-001 |        GPa | No  | <-- LBFGS
 +-----------+-----------------+-----------------+------------+-----+ <-- LBFGS
  

================================================================================
 Starting LBFGS iteration          2 ...
================================================================================
  
 +------------+-------------+-------------+-----------------+ <-- min LBFGS
 |    Step    |   lambda    |   F.delta'  |    enthalpy     | <-- min LBFGS
 +------------+-------------+-------------+-----------------+ <-- min LBFGS
 |  previous  |    0.000000 |    0.013586 |    -3094.266215 | <-- min LBFGS
 +------------+-------------+-------------+-----------------+ <-- min LBFGS
  

--------------------------------------------------------------------------------
 LBFGS: starting iteration         2 with trial guess (lambda=  1.000000)
--------------------------------------------------------------------------------

                           -------------------------------
                                      Unit Cell
                           -------------------------------
        Real Lattice(A)              Reciprocal Lattice(1/A)
     2.3643219     1.3650420     4.2992564        1.328749862   0.767153947   0.487152979
    -2.3643223     1.3650419     4.2992566       -1.328749824   0.767153961   0.487152855
    -0.0000002    -2.7300848     4.2992564        0.000000030  -1.534307922   0.487152761

                       Lattice parameters(A)       Cell Angles
                    a =      5.092834          alpha =   55.322722
                    b =      5.092835          beta  =   55.322725
                    c =      5.092835          gamma =   55.322719

                Current cell volume =            83.252510 A**3
                            density =             2.449446 amu/A**3
                                    =             4.067401 g/cm^3

                           -------------------------------
                                     Cell Contents
                           -------------------------------

            xxxxxxxxxxxxxxxxxxxxxxxxxxxxxxxxxxxxxxxxxxxxxxxxxxxxxxxxxxxxxxxxx
            x  Element         Atom        Fractional coordinates of atoms  x
            x                 Number           u          v          w      x
            x---------------------------------------------------------------x
            x  O                 1         0.556071   0.943929   0.250000   x
            x  O                 2         0.943929   0.250000   0.556071   x
            x  O                 3         0.250000   0.556071   0.943929   x
            x  O                 4         0.056071   0.750000   0.443929   x
            x  O                 5         0.750000   0.443929   0.056071   x
            x  O                 6         0.443929   0.056071   0.750000   x
            x  Al                1         0.147936   0.147936   0.147936   x
            x  Al                2         0.647936   0.647936   0.647936   x
            x  Al                3         0.852064   0.852064   0.852064   x
            x  Al                4         0.352064   0.352064   0.352064   x
            xxxxxxxxxxxxxxxxxxxxxxxxxxxxxxxxxxxxxxxxxxxxxxxxxxxxxxxxxxxxxxxxx


------------------------------------------------------------------------ <-- SCF
SCF loop      Energy           Fermi           Energy gain       Timer   <-- SCF
                               energy          per atom          (sec)   <-- SCF
------------------------------------------------------------------------ <-- SCF
Initial  -3.09426570E+003  0.00000000E+000                       303.21  <-- SCF
      1  -3.09426676E+003  5.64816676E+000   1.06376244E-004     311.57  <-- SCF
      2  -3.09426676E+003  5.64816675E+000   2.42131791E-007     316.50  <-- SCF
      3  -3.09426653E+003  5.67361413E+000  -2.34813486E-005     325.49  <-- SCF
      4  -3.09426637E+003  5.66228392E+000  -1.61139211E-005     332.90  <-- SCF
      5  -3.09426637E+003  5.66269572E+000   1.87007314E-007     337.66  <-- SCF
      6  -3.09426637E+003  5.66297225E+000   9.32803393E-008     342.40  <-- SCF
------------------------------------------------------------------------ <-- SCF
 
Final energy, E             =  -3094.266371289     eV
Final free energy (E-TS)    =  -3094.266371289     eV
(energies not corrected for finite basis set)
 
NB est. 0K energy (E-0.5TS)      =  -3094.266371289     eV
 

 ************************************** Forces **************************************
 *                                                                                  *
 *                           Cartesian components (eV/A)                            *
 * -------------------------------------------------------------------------------- *
 *                         x                    y                    z              *
 *                                                                                  *
 * O               1     -0.03389              0.00000             -0.00001         *
 * O               2      0.01694              0.02935             -0.00000         *
 * O               3      0.01693             -0.02936             -0.00000         *
 * O               4     -0.01694             -0.02937              0.00001         *
 * O               5     -0.01693              0.02936             -0.00000         *
 * O               6      0.03390             -0.00000              0.00001         *
 * Al              1      0.00000              0.00001              0.02725         *
 * Al              2      0.00000              0.00000              0.02724         *
 * Al              3      0.00000             -0.00000             -0.02724         *
 * Al              4     -0.00000              0.00000             -0.02725         *
 *                                                                                  *
 ************************************************************************************

 ***************** Stress Tensor *****************
 *                                               *
 *          Cartesian components (GPa)           *
 * --------------------------------------------- *
 *             x             y             z     *
 *                                               *
 *  x     -0.208312     -0.000006      0.000005  *
 *  y     -0.000006     -0.208269      0.000005  *
 *  z      0.000005      0.000005      0.169166  *
 *                                               *
 *  Pressure:    0.0825                          *
 *                                               *
 *************************************************
  
 +------------+-------------+-------------+-----------------+ <-- min LBFGS
 |    Step    |   lambda    |   F.delta'  |    enthalpy     | <-- min LBFGS
 +------------+-------------+-------------+-----------------+ <-- min LBFGS
 |  previous  |    0.000000 |    0.013586 |    -3094.266215 | <-- min LBFGS
 | trial step |    1.000000 |    0.009606 |    -3094.266371 | <-- min LBFGS
 +------------+-------------+-------------+-----------------+ <-- min LBFGS
  

--------------------------------------------------------------------------------
 LBFGS: improving iteration         2 with line minimization (lambda=  3.413952)
--------------------------------------------------------------------------------

                           -------------------------------
                                      Unit Cell
                           -------------------------------
        Real Lattice(A)              Reciprocal Lattice(1/A)
     2.3660566     1.3660442     4.2989240        1.327775607   0.766591062   0.487190683
    -2.3660572     1.3660439     4.2989244       -1.327775628   0.766591239   0.487190460
    -0.0000005    -2.7320891     4.2989242        0.000000143  -1.533182308   0.487190404

                       Lattice parameters(A)       Cell Angles
                    a =      5.093628          alpha =   55.357441
                    b =      5.093629          beta  =   55.357451
                    c =      5.093629          gamma =   55.357424

                Current cell volume =            83.368318 A**3
                            density =             2.446044 amu/A**3
                                    =             4.061751 g/cm^3

                           -------------------------------
                                     Cell Contents
                           -------------------------------

            xxxxxxxxxxxxxxxxxxxxxxxxxxxxxxxxxxxxxxxxxxxxxxxxxxxxxxxxxxxxxxxxx
            x  Element         Atom        Fractional coordinates of atoms  x
            x                 Number           u          v          w      x
            x---------------------------------------------------------------x
            x  O                 1         0.555993   0.944007   0.250000   x
            x  O                 2         0.944007   0.250000   0.555993   x
            x  O                 3         0.250000   0.555993   0.944007   x
            x  O                 4         0.055993   0.750000   0.444007   x
            x  O                 5         0.750000   0.444007   0.055993   x
            x  O                 6         0.444007   0.055993   0.750000   x
            x  Al                1         0.147964   0.147964   0.147964   x
            x  Al                2         0.647964   0.647964   0.647964   x
            x  Al                3         0.852036   0.852036   0.852036   x
            x  Al                4         0.352036   0.352036   0.352036   x
            xxxxxxxxxxxxxxxxxxxxxxxxxxxxxxxxxxxxxxxxxxxxxxxxxxxxxxxxxxxxxxxxx


------------------------------------------------------------------------ <-- SCF
SCF loop      Energy           Fermi           Energy gain       Timer   <-- SCF
                               energy          per atom          (sec)   <-- SCF
------------------------------------------------------------------------ <-- SCF
Initial  -3.09426259E+003  0.00000000E+000                       368.15  <-- SCF
      1  -3.09426853E+003  5.61540056E+000   5.94114149E-004     376.55  <-- SCF
      2  -3.09426855E+003  5.61540050E+000   1.67745864E-006     382.62  <-- SCF
      3  -3.09426731E+003  5.67488490E+000  -1.23395942E-004     391.62  <-- SCF
      4  -3.09426649E+003  5.64921453E+000  -8.22545479E-005     400.60  <-- SCF
      5  -3.09426648E+003  5.65115338E+000  -6.65488846E-007     405.32  <-- SCF
      6  -3.09426648E+003  5.65215677E+000   5.00007024E-009     410.06  <-- SCF
------------------------------------------------------------------------ <-- SCF
 
Final energy, E             =  -3094.266481955     eV
Final free energy (E-TS)    =  -3094.266481955     eV
(energies not corrected for finite basis set)
 
NB est. 0K energy (E-0.5TS)      =  -3094.266481955     eV
 

 ************************************** Forces **************************************
 *                                                                                  *
 *                           Cartesian components (eV/A)                            *
 * -------------------------------------------------------------------------------- *
 *                         x                    y                    z              *
 *                                                                                  *
 * O               1     -0.02970              0.00000             -0.00001         *
 * O               2      0.01485              0.02571             -0.00000         *
 * O               3      0.01484             -0.02572              0.00001         *
 * O               4     -0.01484             -0.02570              0.00000         *
 * O               5     -0.01484              0.02571             -0.00000         *
 * O               6      0.02969              0.00000              0.00000         *
 * Al              1      0.00000             -0.00000              0.01268         *
 * Al              2     -0.00000             -0.00001              0.01267         *
 * Al              3     -0.00000             -0.00000             -0.01267         *
 * Al              4      0.00000              0.00001             -0.01268         *
 *                                                                                  *
 ************************************************************************************

 ***************** Stress Tensor *****************
 *                                               *
 *          Cartesian components (GPa)           *
 * --------------------------------------------- *
 *             x             y             z     *
 *                                               *
 *  x      0.231455      0.000034     -0.000025  *
 *  y      0.000034      0.231640     -0.000027  *
 *  z     -0.000025     -0.000027      0.236242  *
 *                                               *
 *  Pressure:   -0.2331                          *
 *                                               *
 *************************************************
  
 +------------+-------------+-------------+-----------------+ <-- min LBFGS
 |    Step    |   lambda    |   F.delta'  |    enthalpy     | <-- min LBFGS
 +------------+-------------+-------------+-----------------+ <-- min LBFGS
 |  previous  |    0.000000 |    0.013586 |    -3094.266215 | <-- min LBFGS
 | trial step |    1.000000 |    0.009606 |    -3094.266371 | <-- min LBFGS
 |  line step |    3.413952 |   -0.002835 |    -3094.266481 | <-- min LBFGS
 +------------+-------------+-------------+-----------------+ <-- min LBFGS
  
 LBFGS: finished iteration     2 with enthalpy= -3.09426648E+003 eV
  
 +-----------+-----------------+-----------------+------------+-----+ <-- LBFGS
 | Parameter |      value      |    tolerance    |    units   | OK? | <-- LBFGS
 +-----------+-----------------+-----------------+------------+-----+ <-- LBFGS
 |  dE/ion   |   2.667977E-005 |   1.000000E-005 |         eV | No  | <-- LBFGS
 |  |F|max   |   2.969824E-002 |   1.000000E-002 |       eV/A | No  | <-- LBFGS
 |  |dR|max  |   5.244381E-004 |   1.000000E-003 |          A | Yes | <-- LBFGS
 |   Smax    |   2.362422E-001 |   1.000000E-001 |        GPa | No  | <-- LBFGS
 +-----------+-----------------+-----------------+------------+-----+ <-- LBFGS
  

================================================================================
 Starting LBFGS iteration          3 ...
================================================================================
  
 +------------+-------------+-------------+-----------------+ <-- min LBFGS
 |    Step    |   lambda    |   F.delta'  |    enthalpy     | <-- min LBFGS
 +------------+-------------+-------------+-----------------+ <-- min LBFGS
 |  previous  |    0.000000 |    0.010288 |    -3094.266481 | <-- min LBFGS
 +------------+-------------+-------------+-----------------+ <-- min LBFGS
  

--------------------------------------------------------------------------------
 LBFGS: starting iteration         3 with trial guess (lambda=  1.000000)
--------------------------------------------------------------------------------

                           -------------------------------
                                      Unit Cell
                           -------------------------------
        Real Lattice(A)              Reciprocal Lattice(1/A)
     2.3655737     1.3657654     4.2976779        1.328046683   0.766747622   0.487331929
    -2.3655742     1.3657651     4.2976782       -1.328046692   0.766747763   0.487331731
    -0.0000005    -2.7315312     4.2976780        0.000000118  -1.533495413   0.487331696

                       Lattice parameters(A)       Cell Angles
                    a =      5.092277          alpha =   55.361113
                    b =      5.092278          beta  =   55.361121
                    c =      5.092278          gamma =   55.361097

                Current cell volume =            83.310126 A**3
                            density =             2.447752 amu/A**3
                                    =             4.064588 g/cm^3

                           -------------------------------
                                     Cell Contents
                           -------------------------------

            xxxxxxxxxxxxxxxxxxxxxxxxxxxxxxxxxxxxxxxxxxxxxxxxxxxxxxxxxxxxxxxxx
            x  Element         Atom        Fractional coordinates of atoms  x
            x                 Number           u          v          w      x
            x---------------------------------------------------------------x
            x  O                 1         0.555958   0.944042   0.250000   x
            x  O                 2         0.944042   0.250000   0.555958   x
            x  O                 3         0.250000   0.555958   0.944042   x
            x  O                 4         0.055958   0.750000   0.444042   x
            x  O                 5         0.750000   0.444043   0.055958   x
            x  O                 6         0.444042   0.055958   0.750000   x
            x  Al                1         0.147971   0.147971   0.147971   x
            x  Al                2         0.647971   0.647971   0.647971   x
            x  Al                3         0.852029   0.852029   0.852029   x
            x  Al                4         0.352029   0.352029   0.352029   x
            xxxxxxxxxxxxxxxxxxxxxxxxxxxxxxxxxxxxxxxxxxxxxxxxxxxxxxxxxxxxxxxxx


------------------------------------------------------------------------ <-- SCF
SCF loop      Energy           Fermi           Energy gain       Timer   <-- SCF
                               energy          per atom          (sec)   <-- SCF
------------------------------------------------------------------------ <-- SCF
Initial  -3.09426580E+003  0.00000000E+000                       435.40  <-- SCF
      1  -3.09426705E+003  5.67295503E+000   1.25047985E-004     443.84  <-- SCF
      2  -3.09426705E+003  5.67295500E+000   2.19341491E-007     448.63  <-- SCF
      3  -3.09426678E+003  5.64511484E+000  -2.70788308E-005     457.61  <-- SCF
      4  -3.09426654E+003  5.65882164E+000  -2.44860515E-005     465.53  <-- SCF
      5  -3.09426654E+003  5.65860836E+000   4.88556924E-009     470.17  <-- SCF
      6  -3.09426654E+003  5.65846303E+000   1.14154904E-008     474.87  <-- SCF
------------------------------------------------------------------------ <-- SCF
 
Final energy, E             =  -3094.266538301     eV
Final free energy (E-TS)    =  -3094.266538301     eV
(energies not corrected for finite basis set)
 
NB est. 0K energy (E-0.5TS)      =  -3094.266538301     eV
 

 ************************************** Forces **************************************
 *                                                                                  *
 *                           Cartesian components (eV/A)                            *
 * -------------------------------------------------------------------------------- *
 *                         x                    y                    z              *
 *                                                                                  *
 * O               1     -0.02193             -0.00000             -0.00001         *
 * O               2      0.01097              0.01898             -0.00001         *
 * O               3      0.01095             -0.01898              0.00000         *
 * O               4     -0.01096             -0.01897              0.00000         *
 * O               5     -0.01095              0.01898              0.00000         *
 * O               6      0.02192             -0.00000              0.00000         *
 * Al              1      0.00000             -0.00000              0.00957         *
 * Al              2     -0.00000             -0.00001              0.00957         *
 * Al              3     -0.00000              0.00000             -0.00956         *
 * Al              4      0.00000              0.00000             -0.00957         *
 *                                                                                  *
 ************************************************************************************

 ***************** Stress Tensor *****************
 *                                               *
 *          Cartesian components (GPa)           *
 * --------------------------------------------- *
 *             x             y             z     *
 *                                               *
 *  x      0.165500      0.000028     -0.000014  *
 *  y      0.000028      0.165699     -0.000009  *
 *  z     -0.000014     -0.000009      0.125515  *
 *                                               *
 *  Pressure:   -0.1522                          *
 *                                               *
 *************************************************
  
 +------------+-------------+-------------+-----------------+ <-- min LBFGS
 |    Step    |   lambda    |   F.delta'  |    enthalpy     | <-- min LBFGS
 +------------+-------------+-------------+-----------------+ <-- min LBFGS
 |  previous  |    0.000000 |    0.010288 |    -3094.266481 | <-- min LBFGS
 | trial step |    1.000000 |    0.006863 |    -3094.266538 | <-- min LBFGS
 +------------+-------------+-------------+-----------------+ <-- min LBFGS
  

--------------------------------------------------------------------------------
 LBFGS: improving iteration         3 with line minimization (lambda=  3.003593)
--------------------------------------------------------------------------------

                           -------------------------------
                                      Unit Cell
                           -------------------------------
        Real Lattice(A)              Reciprocal Lattice(1/A)
     2.3646061     1.3652066     4.2951811        1.328590142   0.767061497   0.487615175
    -2.3646065     1.3652065     4.2951814       -1.328590128   0.767061566   0.487615029
    -0.0000003    -2.7304135     4.2951810        0.000000066  -1.534123133   0.487615034

                       Lattice parameters(A)       Cell Angles
                    a =      5.089571          alpha =   55.368476
                    b =      5.089571          beta  =   55.368481
                    c =      5.089571          gamma =   55.368462

                Current cell volume =            83.193613 A**3
                            density =             2.451180 amu/A**3
                                    =             4.070281 g/cm^3

                           -------------------------------
                                     Cell Contents
                           -------------------------------

            xxxxxxxxxxxxxxxxxxxxxxxxxxxxxxxxxxxxxxxxxxxxxxxxxxxxxxxxxxxxxxxxx
            x  Element         Atom        Fractional coordinates of atoms  x
            x                 Number           u          v          w      x
            x---------------------------------------------------------------x
            x  O                 1         0.555888   0.944112   0.250000   x
            x  O                 2         0.944113   0.250000   0.555887   x
            x  O                 3         0.250000   0.555887   0.944112   x
            x  O                 4         0.055887   0.750000   0.444112   x
            x  O                 5         0.750000   0.444113   0.055887   x
            x  O                 6         0.444113   0.055888   0.750000   x
            x  Al                1         0.147985   0.147985   0.147985   x
            x  Al                2         0.647985   0.647985   0.647985   x
            x  Al                3         0.852015   0.852015   0.852015   x
            x  Al                4         0.352015   0.352015   0.352015   x
            xxxxxxxxxxxxxxxxxxxxxxxxxxxxxxxxxxxxxxxxxxxxxxxxxxxxxxxxxxxxxxxxx


------------------------------------------------------------------------ <-- SCF
SCF loop      Energy           Fermi           Energy gain       Timer   <-- SCF
                               energy          per atom          (sec)   <-- SCF
------------------------------------------------------------------------ <-- SCF
Initial  -3.09426362E+003  0.00000000E+000                       500.66  <-- SCF
      1  -3.09426837E+003  5.69986060E+000   4.74820621E-004     509.12  <-- SCF
      2  -3.09426838E+003  5.69986039E+000   8.37588563E-007     514.71  <-- SCF
      3  -3.09426739E+003  5.64689985E+000  -9.83883892E-005     523.72  <-- SCF
      4  -3.09426651E+003  5.67310072E+000  -8.83419789E-005     532.61  <-- SCF
      5  -3.09426651E+003  5.67257411E+000  -1.51552608E-007     537.25  <-- SCF
      6  -3.09426651E+003  5.67225312E+000   1.58960331E-008     541.85  <-- SCF
------------------------------------------------------------------------ <-- SCF
 
Final energy, E             =  -3094.266507477     eV
Final free energy (E-TS)    =  -3094.266507477     eV
(energies not corrected for finite basis set)
 
NB est. 0K energy (E-0.5TS)      =  -3094.266507477     eV
 

 ************************************** Forces **************************************
 *                                                                                  *
 *                           Cartesian components (eV/A)                            *
 * -------------------------------------------------------------------------------- *
 *                         x                    y                    z              *
 *                                                                                  *
 * O               1     -0.01371             -0.00000             -0.00001         *
 * O               2      0.00686              0.01186             -0.00001         *
 * O               3      0.00684             -0.01187              0.00000         *
 * O               4     -0.00685             -0.01186              0.00001         *
 * O               5     -0.00684              0.01187              0.00000         *
 * O               6      0.01371             -0.00000             -0.00000         *
 * Al              1     -0.00000             -0.00000              0.00458         *
 * Al              2     -0.00000             -0.00000              0.00458         *
 * Al              3     -0.00000             -0.00000             -0.00458         *
 * Al              4      0.00000              0.00000             -0.00459         *
 *                                                                                  *
 ************************************************************************************

 ***************** Stress Tensor *****************
 *                                               *
 *          Cartesian components (GPa)           *
 * --------------------------------------------- *
 *             x             y             z     *
 *                                               *
 *  x     -0.156464     -0.000002     -0.000019  *
 *  y     -0.000002     -0.156314     -0.000003  *
 *  z     -0.000019     -0.000003     -0.240713  *
 *                                               *
 *  Pressure:    0.1845                          *
 *                                               *
 *************************************************
  
 +------------+-------------+-------------+-----------------+ <-- min LBFGS
 |    Step    |   lambda    |   F.delta'  |    enthalpy     | <-- min LBFGS
 +------------+-------------+-------------+-----------------+ <-- min LBFGS
 |  previous  |    0.000000 |    0.010288 |    -3094.266481 | <-- min LBFGS
 | trial step |    1.000000 |    0.006863 |    -3094.266538 | <-- min LBFGS
 |  line step |    3.003593 |   -0.004685 |    -3094.266508 | <-- min LBFGS
 +------------+-------------+-------------+-----------------+ <-- min LBFGS
  
 LBFGS: finished iteration     3 with enthalpy= -3.09426651E+003 eV
  
 +-----------+-----------------+-----------------+------------+-----+ <-- LBFGS
 | Parameter |      value      |    tolerance    |    units   | OK? | <-- LBFGS
 +-----------+-----------------+-----------------+------------+-----+ <-- LBFGS
 |  dE/ion   |   2.624884E-006 |   1.000000E-005 |         eV | Yes | <-- LBFGS
 |  |F|max   |   1.370866E-002 |   1.000000E-002 |       eV/A | No  | <-- LBFGS
 |  |dR|max  |   4.983720E-004 |   1.000000E-003 |          A | Yes | <-- LBFGS
 |   Smax    |   2.407131E-001 |   1.000000E-001 |        GPa | No  | <-- LBFGS
 +-----------+-----------------+-----------------+------------+-----+ <-- LBFGS
  

================================================================================
 Starting LBFGS iteration          4 ...
================================================================================
  
 +------------+-------------+-------------+-----------------+ <-- min LBFGS
 |    Step    |   lambda    |   F.delta'  |    enthalpy     | <-- min LBFGS
 +------------+-------------+-------------+-----------------+ <-- min LBFGS
 |  previous  |    0.000000 |    0.006443 |    -3094.266508 | <-- min LBFGS
 +------------+-------------+-------------+-----------------+ <-- min LBFGS
  

--------------------------------------------------------------------------------
 LBFGS: starting iteration         4 with trial guess (lambda=  1.000000)
--------------------------------------------------------------------------------

                           -------------------------------
                                      Unit Cell
                           -------------------------------
        Real Lattice(A)              Reciprocal Lattice(1/A)
     2.3652893     1.3656010     4.2961314        1.328206407   0.766839935   0.487507314
    -2.3652897     1.3656009     4.2961316       -1.328206414   0.766840036   0.487507174
    -0.0000003    -2.7312023     4.2961313        0.000000083  -1.533680039   0.487507173

                       Lattice parameters(A)       Cell Angles
                    a =      5.090796          alpha =   55.371372
                    b =      5.090796          beta  =   55.371378
                    c =      5.090797          gamma =   55.371359

                Current cell volume =            83.260107 A**3
                            density =             2.449223 amu/A**3
                                    =             4.067030 g/cm^3

                           -------------------------------
                                     Cell Contents
                           -------------------------------

            xxxxxxxxxxxxxxxxxxxxxxxxxxxxxxxxxxxxxxxxxxxxxxxxxxxxxxxxxxxxxxxxx
            x  Element         Atom        Fractional coordinates of atoms  x
            x                 Number           u          v          w      x
            x---------------------------------------------------------------x
            x  O                 1         0.555873   0.944128   0.250000   x
            x  O                 2         0.944128   0.250000   0.555872   x
            x  O                 3         0.250000   0.555872   0.944127   x
            x  O                 4         0.055872   0.750000   0.444128   x
            x  O                 5         0.750000   0.444128   0.055872   x
            x  O                 6         0.444128   0.055873   0.750000   x
            x  Al                1         0.147989   0.147989   0.147989   x
            x  Al                2         0.647989   0.647989   0.647989   x
            x  Al                3         0.852011   0.852011   0.852011   x
            x  Al                4         0.352011   0.352011   0.352011   x
            xxxxxxxxxxxxxxxxxxxxxxxxxxxxxxxxxxxxxxxxxxxxxxxxxxxxxxxxxxxxxxxxx


------------------------------------------------------------------------ <-- SCF
SCF loop      Energy           Fermi           Energy gain       Timer   <-- SCF
                               energy          per atom          (sec)   <-- SCF
------------------------------------------------------------------------ <-- SCF
Initial  -3.09426588E+003  0.00000000E+000                       567.56  <-- SCF
      1  -3.09426711E+003  5.64555169E+000   1.22813592E-004     575.65  <-- SCF
      2  -3.09426712E+003  5.64555169E+000   4.34759243E-007     580.49  <-- SCF
      3  -3.09426688E+003  5.67893844E+000  -2.34315972E-005     589.42  <-- SCF
      4  -3.09426658E+003  5.66413656E+000  -3.05163692E-005     597.37  <-- SCF
      5  -3.09426658E+003  5.66426080E+000   2.79192179E-008     601.95  <-- SCF
      6  -3.09426658E+003  5.66435791E+000   1.03187015E-008     606.54  <-- SCF
------------------------------------------------------------------------ <-- SCF
 
Final energy, E             =  -3094.266577121     eV
Final free energy (E-TS)    =  -3094.266577121     eV
(energies not corrected for finite basis set)
 
NB est. 0K energy (E-0.5TS)      =  -3094.266577121     eV
 

 ************************************** Forces **************************************
 *                                                                                  *
 *                           Cartesian components (eV/A)                            *
 * -------------------------------------------------------------------------------- *
 *                         x                    y                    z              *
 *                                                                                  *
 * O               1     -0.01118             -0.00000             -0.00000         *
 * O               2      0.00559              0.00967             -0.00001         *
 * O               3      0.00557             -0.00967              0.00000         *
 * O               4     -0.00558             -0.00966              0.00001         *
 * O               5     -0.00557              0.00967             -0.00000         *
 * O               6      0.01117             -0.00000             -0.00000         *
 * Al              1      0.00000             -0.00000              0.00171         *
 * Al              2     -0.00000             -0.00000              0.00171         *
 * Al              3     -0.00000             -0.00000             -0.00171         *
 * Al              4      0.00000              0.00000             -0.00171         *
 *                                                                                  *
 ************************************************************************************

 ***************** Stress Tensor *****************
 *                                               *
 *          Cartesian components (GPa)           *
 * --------------------------------------------- *
 *             x             y             z     *
 *                                               *
 *  x      0.009870      0.000008     -0.000002  *
 *  y      0.000008      0.010023     -0.000002  *
 *  z     -0.000002     -0.000002     -0.127295  *
 *                                               *
 *  Pressure:    0.0358                          *
 *                                               *
 *************************************************
  
 +------------+-------------+-------------+-----------------+ <-- min LBFGS
 |    Step    |   lambda    |   F.delta'  |    enthalpy     | <-- min LBFGS
 +------------+-------------+-------------+-----------------+ <-- min LBFGS
 |  previous  |    0.000000 |    0.006443 |    -3094.266508 | <-- min LBFGS
 | trial step |    1.000000 |    0.001330 |    -3094.266577 | <-- min LBFGS
 +------------+-------------+-------------+-----------------+ <-- min LBFGS
  
 LBFGS: finished iteration     4 with enthalpy= -3.09426658E+003 eV
  
 +-----------+-----------------+-----------------+------------+-----+ <-- LBFGS
 | Parameter |      value      |    tolerance    |    units   | OK? | <-- LBFGS
 +-----------+-----------------+-----------------+------------+-----+ <-- LBFGS
 |  dE/ion   |   6.940174E-006 |   1.000000E-005 |         eV | Yes | <-- LBFGS
 |  |F|max   |   1.117872E-002 |   1.000000E-002 |       eV/A | No  | <-- LBFGS
 |  |dR|max  |   7.159459E-005 |   1.000000E-003 |          A | Yes | <-- LBFGS
 |   Smax    |   1.272946E-001 |   1.000000E-001 |        GPa | No  | <-- LBFGS
 +-----------+-----------------+-----------------+------------+-----+ <-- LBFGS
  

================================================================================
 Starting LBFGS iteration          5 ...
================================================================================

Writing analysis data to al2o3_xc-LDA_c-1000_k-5x5x5_geom.castep_bin

Writing model to al2o3_xc-LDA_c-1000_k-5x5x5_geom.check
  
 +------------+-------------+-------------+-----------------+ <-- min LBFGS
 |    Step    |   lambda    |   F.delta'  |    enthalpy     | <-- min LBFGS
 +------------+-------------+-------------+-----------------+ <-- min LBFGS
 |  previous  |    0.000000 |    0.003353 |    -3094.266577 | <-- min LBFGS
 +------------+-------------+-------------+-----------------+ <-- min LBFGS
  

--------------------------------------------------------------------------------
 LBFGS: starting iteration         5 with trial guess (lambda=  1.000000)
--------------------------------------------------------------------------------

                           -------------------------------
                                      Unit Cell
                           -------------------------------
        Real Lattice(A)              Reciprocal Lattice(1/A)
     2.3653929     1.3656607     4.2966837        1.328148234   0.766806446   0.487444648
    -2.3653933     1.3656605     4.2966839       -1.328148234   0.766806532   0.487444514
    -0.0000003    -2.7313216     4.2966836        0.000000074  -1.533613049   0.487444515

                       Lattice parameters(A)       Cell Angles
                    a =      5.091326          alpha =   55.367740
                    b =      5.091327          beta  =   55.367745
                    c =      5.091327          gamma =   55.367731

                Current cell volume =            83.278096 A**3
                            density =             2.448694 amu/A**3
[...]
 | Parameter |      value      |    tolerance    |    units   | OK? | <-- LBFGS
 +-----------+-----------------+-----------------+------------+-----+ <-- LBFGS
 |  dE/ion   |   4.084109E-007 |   1.000000E-005 |         eV | Yes | <-- LBFGS
 |  |F|max   |   4.152046E-003 |   1.000000E-002 |       eV/A | Yes | <-- LBFGS
 |  |dR|max  |   6.681916E-005 |   1.000000E-003 |          A | Yes | <-- LBFGS
 |   Smax    |   1.708304E-001 |   1.000000E-001 |        GPa | No  | <-- LBFGS
 +-----------+-----------------+-----------------+------------+-----+ <-- LBFGS
  

================================================================================
 Starting LBFGS iteration          9 ...
================================================================================
  
 +------------+-------------+-------------+-----------------+ <-- min LBFGS
 |    Step    |   lambda    |   F.delta'  |    enthalpy     | <-- min LBFGS
 +------------+-------------+-------------+-----------------+ <-- min LBFGS
 |  previous  |    0.000000 |    0.003174 |    -3094.266555 | <-- min LBFGS
 +------------+-------------+-------------+-----------------+ <-- min LBFGS
  

--------------------------------------------------------------------------------
 LBFGS: starting iteration         9 with trial guess (lambda=  1.000000)
--------------------------------------------------------------------------------

                           -------------------------------
                                      Unit Cell
                           -------------------------------
        Real Lattice(A)              Reciprocal Lattice(1/A)
     2.3655762     1.3657661     4.2975057        1.328045483   0.766747261   0.487351315
    -2.3655758     1.3657660     4.2975056       -1.328045550   0.766747310   0.487351421
     0.0000001    -2.7315326     4.2975055        0.000000010  -1.533494625   0.487351276

                       Lattice parameters(A)       Cell Angles
                    a =      5.092133          alpha =   55.362860
                    b =      5.092133          beta  =   55.362860
                    c =      5.092134          gamma =   55.362854

                Current cell volume =            83.306900 A**3
                            density =             2.447847 amu/A**3
                                    =             4.064746 g/cm^3

                           -------------------------------
                                     Cell Contents
                           -------------------------------

            xxxxxxxxxxxxxxxxxxxxxxxxxxxxxxxxxxxxxxxxxxxxxxxxxxxxxxxxxxxxxxxxx
            x  Element         Atom        Fractional coordinates of atoms  x
            x                 Number           u          v          w      x
            x---------------------------------------------------------------x
            x  O                 1         0.555822   0.944178   0.250000   x
            x  O                 2         0.944178   0.250000   0.555822   x
            x  O                 3         0.250000   0.555822   0.944178   x
            x  O                 4         0.055822   0.750000   0.444178   x
            x  O                 5         0.750000   0.444178   0.055822   x
            x  O                 6         0.444178   0.055822   0.750000   x
            x  Al                1         0.147996   0.147996   0.147996   x
            x  Al                2         0.647996   0.647996   0.647996   x
            x  Al                3         0.852004   0.852004   0.852004   x
            x  Al                4         0.352004   0.352004   0.352004   x
            xxxxxxxxxxxxxxxxxxxxxxxxxxxxxxxxxxxxxxxxxxxxxxxxxxxxxxxxxxxxxxxxx


------------------------------------------------------------------------ <-- SCF
SCF loop      Energy           Fermi           Energy gain       Timer   <-- SCF
                               energy          per atom          (sec)   <-- SCF
------------------------------------------------------------------------ <-- SCF
Initial  -3.09426637E+003  0.00000000E+000                      1211.32  <-- SCF
      1  -3.09426666E+003  5.66232415E+000   2.86204659E-005    1219.36  <-- SCF
      2  -3.09426666E+003  5.66232415E+000   1.29763814E-007    1223.97  <-- SCF
      3  -3.09426661E+003  5.65209374E+000  -4.95567382E-006    1231.16  <-- SCF
      4  -3.09426657E+003  5.65701489E+000  -3.42264506E-006    1235.73  <-- SCF
------------------------------------------------------------------------ <-- SCF
 
Final energy, E             =  -3094.266574633     eV
Final free energy (E-TS)    =  -3094.266574633     eV
(energies not corrected for finite basis set)
 
NB est. 0K energy (E-0.5TS)      =  -3094.266574633     eV
 

 ************************************** Forces **************************************
 *                                                                                  *
 *                           Cartesian components (eV/A)                            *
 * -------------------------------------------------------------------------------- *
 *                         x                    y                    z              *
 *                                                                                  *
 * O               1     -0.00237              0.00001             -0.00001         *
 * O               2      0.00117              0.00204              0.00000         *
 * O               3      0.00119             -0.00205             -0.00000         *
 * O               4     -0.00119             -0.00206             -0.00000         *
 * O               5     -0.00120              0.00207              0.00000         *
 * O               6      0.00239             -0.00001              0.00001         *
 * Al              1     -0.00000             -0.00000             -0.00025         *
 * Al              2     -0.00000             -0.00000             -0.00025         *
 * Al              3      0.00000             -0.00000              0.00025         *
 * Al              4      0.00000              0.00000              0.00025         *
 *                                                                                  *
 ************************************************************************************

 ***************** Stress Tensor *****************
 *                                               *
 *          Cartesian components (GPa)           *
 * --------------------------------------------- *
 *             x             y             z     *
 *                                               *
 *  x      0.052290      0.000000      0.000011  *
 *  y      0.000000      0.052306      0.000008  *
 *  z      0.000011      0.000008      0.004385  *
 *                                               *
 *  Pressure:   -0.0363                          *
 *                                               *
 *************************************************
  
 +------------+-------------+-------------+-----------------+ <-- min LBFGS
 |    Step    |   lambda    |   F.delta'  |    enthalpy     | <-- min LBFGS
 +------------+-------------+-------------+-----------------+ <-- min LBFGS
 |  previous  |    0.000000 |    0.003174 |    -3094.266555 | <-- min LBFGS
 | trial step |    1.000000 |    0.000031 |    -3094.266575 | <-- min LBFGS
 +------------+-------------+-------------+-----------------+ <-- min LBFGS
  
 LBFGS: finished iteration     9 with enthalpy= -3.09426657E+003 eV
  
 +-----------+-----------------+-----------------+------------+-----+ <-- LBFGS
 | Parameter |      value      |    tolerance    |    units   | OK? | <-- LBFGS
 +-----------+-----------------+-----------------+------------+-----+ <-- LBFGS
 |  dE/ion   |   1.907596E-006 |   1.000000E-005 |         eV | Yes | <-- LBFGS
 |  |F|max   |   2.395066E-003 |   1.000000E-002 |       eV/A | Yes | <-- LBFGS
 |  |dR|max  |   4.779178E-005 |   1.000000E-003 |          A | Yes | <-- LBFGS
 |   Smax    |   5.230592E-002 |   1.000000E-001 |        GPa | Yes | <-- LBFGS
 +-----------+-----------------+-----------------+------------+-----+ <-- LBFGS
  
 LBFGS: Geometry optimization completed successfully.

================================================================================
 LBFGS: Final Configuration:
================================================================================

                           -------------------------------
                                      Unit Cell
                           -------------------------------
        Real Lattice(A)              Reciprocal Lattice(1/A)
     2.3655762     1.3657661     4.2975057        1.328045483   0.766747261   0.487351315
    -2.3655758     1.3657660     4.2975056       -1.328045550   0.766747310   0.487351421
     0.0000001    -2.7315326     4.2975055        0.000000010  -1.533494625   0.487351276

                       Lattice parameters(A)       Cell Angles
                    a =      5.092133          alpha =   55.362860
                    b =      5.092133          beta  =   55.362860
                    c =      5.092134          gamma =   55.362854

                Current cell volume =            83.306900 A**3
                            density =             2.447847 amu/A**3
                                    =             4.064746 g/cm^3

                           -------------------------------
                                     Cell Contents
                           -------------------------------

            xxxxxxxxxxxxxxxxxxxxxxxxxxxxxxxxxxxxxxxxxxxxxxxxxxxxxxxxxxxxxxxxx
            x  Element         Atom        Fractional coordinates of atoms  x
            x                 Number           u          v          w      x
            x---------------------------------------------------------------x
            x  O                 1         0.555822   0.944178   0.250000   x
            x  O                 2         0.944178   0.250000   0.555822   x
            x  O                 3         0.250000   0.555822   0.944178   x
            x  O                 4         0.055822   0.750000   0.444178   x
            x  O                 5         0.750000   0.444178   0.055822   x
            x  O                 6         0.444178   0.055822   0.750000   x
            x  Al                1         0.147996   0.147996   0.147996   x
            x  Al                2         0.647996   0.647996   0.647996   x
            x  Al                3         0.852004   0.852004   0.852004   x
            x  Al                4         0.352004   0.352004   0.352004   x
            xxxxxxxxxxxxxxxxxxxxxxxxxxxxxxxxxxxxxxxxxxxxxxxxxxxxxxxxxxxxxxxxx


 LBFGS: Final Enthalpy     = -3.09426657E+003 eV
 LBFGS: Final <frequency>  =    1279.99479 cm-1
 LBFGS: Final bulk modulus =     455.74375 GPa

 ************************************** Forces **************************************
 *                                                                                  *
 *                           Cartesian components (eV/A)                            *
 * -------------------------------------------------------------------------------- *
 *                         x                    y                    z              *
 *                                                                                  *
 * O               1     -0.00237              0.00001             -0.00001         *
 * O               2      0.00117              0.00204              0.00000         *
 * O               3      0.00119             -0.00205             -0.00000         *
 * O               4     -0.00119             -0.00206             -0.00000         *
 * O               5     -0.00120              0.00207              0.00000         *
 * O               6      0.00239             -0.00001              0.00001         *
 * Al              1     -0.00000             -0.00000             -0.00025         *
 * Al              2     -0.00000             -0.00000             -0.00025         *
 * Al              3      0.00000             -0.00000              0.00025         *
 * Al              4      0.00000              0.00000              0.00025         *
 *                                                                                  *
 ************************************************************************************

 ***************** Stress Tensor *****************
 *                                               *
 *          Cartesian components (GPa)           *
 * --------------------------------------------- *
 *             x             y             z     *
 *                                               *
 *  x      0.052290      0.000000      0.000011  *
 *  y      0.000000      0.052306      0.000008  *
 *  z      0.000011      0.000008      0.004385  *
 *                                               *
 *  Pressure:   -0.0363                          *
 *                                               *
 *************************************************

 Pseudo atomic calculation performed for O 2s2 2p4

 Converged in 24 iterations to a total energy of -431.3978 eV

 Pseudo atomic calculation performed for Al 3s2 3p1

 Converged in 15 iterations to a total energy of -105.5956 eV
Charge spilling parameter for spin component 1 = 0.78%

            Orbital Populations       
     Ion    Atom   Orbital             Charge
  -------------------------------------------
      O     1      S                    1.829
      O     1      Px                   1.724
      O     1      Py                   1.757
      O     1      Pz                   1.747
      O     2      S                    1.829
      O     2      Px                   1.749
      O     2      Py                   1.732
      O     2      Pz                   1.747
      O     3      S                    1.829
      O     3      Px                   1.749
      O     3      Py                   1.733
      O     3      Pz                   1.747
      O     4      S                    1.829
      O     4      Px                   1.749
      O     4      Py                   1.733
      O     4      Pz                   1.747
      O     5      S                    1.829
      O     5      Px                   1.749
      O     5      Py                   1.733
      O     5      Pz                   1.747
      O     6      S                    1.829
      O     6      Px                   1.724
      O     6      Py                   1.757
      O     6      Pz                   1.747
     Al     1      S                    0.508
     Al     1      Px                   0.304
     Al     1      Py                   0.304
     Al     1      Pz                   0.297
     Al     2      S                    0.508
     Al     2      Px                   0.304
     Al     2      Py                   0.304
     Al     2      Pz                   0.297
     Al     3      S                    0.508
     Al     3      Px                   0.304
     Al     3      Py                   0.304
     Al     3      Pz                   0.297
     Al     4      S                    0.508
     Al     4      Px                   0.304
     Al     4      Py                   0.304
     Al     4      Pz                   0.297
  -------------------------------------------
                           Total:      48.000
  -------------------------------------------

     Atomic Populations (Mulliken)
     -----------------------------
Species          Ion     s      p      d      f     Total  Charge (e)
=====================================================================
  O               1     1.83   5.23   0.00   0.00   7.06    -1.06
  O               2     1.83   5.23   0.00   0.00   7.06    -1.06
  O               3     1.83   5.23   0.00   0.00   7.06    -1.06
  O               4     1.83   5.23   0.00   0.00   7.06    -1.06
  O               5     1.83   5.23   0.00   0.00   7.06    -1.06
  O               6     1.83   5.23   0.00   0.00   7.06    -1.06
  Al              1     0.51   0.91   0.00   0.00   1.41     1.59
  Al              2     0.51   0.91   0.00   0.00   1.41     1.59
  Al              3     0.51   0.91   0.00   0.00   1.41     1.59
  Al              4     0.51   0.91   0.00   0.00   1.41     1.59
=====================================================================

                 Bond                   Population      Length (A)
======================================================================
               O 5 -- Al 4                   0.36        1.84507
               O 6 -- Al 1                   0.36        1.84507
               O 6 -- Al 4                   0.36        1.84507
               O 4 -- Al 4                   0.36        1.84507
               O 2 -- Al 2                   0.36        1.84507
               O 5 -- Al 1                   0.36        1.84507
               O 1 -- Al 3                   0.36        1.84507
               O 3 -- Al 2                   0.36        1.84507
               O 1 -- Al 2                   0.36        1.84507
               O 2 -- Al 3                   0.36        1.84507
               O 3 -- Al 3                   0.36        1.84507
               O 4 -- Al 1                   0.36        1.84507
               O 2 -- Al 4                   0.26        1.95524
               O 4 -- Al 2                   0.26        1.95524
               O 3 -- Al 1                   0.26        1.95524
               O 4 -- Al 3                   0.26        1.95524
               O 1 -- Al 4                   0.26        1.95524
               O 2 -- Al 1                   0.26        1.95524
               O 5 -- Al 3                   0.26        1.95524
               O 1 -- Al 1                   0.26        1.95524
               O 3 -- Al 4                   0.26        1.95524
               O 6 -- Al 2                   0.26        1.95524
               O 6 -- Al 3                   0.26        1.95524
               O 5 -- Al 2                   0.26        1.95524
               O 1 -- O 3                   -0.17        2.50609
               O 1 -- O 2                   -0.17        2.50609
               O 4 -- O 6                   -0.17        2.50609
               O 2 -- O 3                   -0.17        2.50609
               O 5 -- O 6                   -0.17        2.50609
               O 4 -- O 5                   -0.17        2.50609
               O 2 -- O 4                   -0.17        2.60028
               O 3 -- O 5                   -0.17        2.60028
               O 1 -- O 6                   -0.17        2.60028
              Al 2 -- Al 3                  -0.53        2.63018
              Al 1 -- Al 4                  -0.53        2.63018
               O 3 -- O 6                   -0.10        2.70674
               O 1 -- O 5                   -0.10        2.70674
               O 2 -- O 6                   -0.10        2.70674
               O 1 -- O 4                   -0.10        2.70674
               O 2 -- O 5                   -0.10        2.70674
               O 3 -- O 4                   -0.10        2.70674
              Al 2 -- Al 4                  -0.67        2.77363
              Al 1 -- Al 3                  -0.67        2.77363
======================================================================


Writing analysis data to al2o3_xc-LDA_c-1000_k-5x5x5_geom.castep_bin

Writing model to al2o3_xc-LDA_c-1000_k-5x5x5_geom.check
 
 A BibTeX formatted list of references used in this run has been written to 
 al2o3_xc-LDA_c-1000_k-5x5x5_geom.bib
 
Initialisation time =      7.38 s
Calculation time    =   1256.28 s
Finalisation time   =      0.25 s
Total time          =   1263.92 s
Peak Memory Use     = 731856 kB
  
Overall parallel efficiency rating: Excellent (98%)                             
  
Data was distributed by:-
k-point (9-way); efficiency rating: Excellent (98%)                             
