 +-------------------------------------------------+
 |                                                 |
 |      CCC   AA    SSS  TTTTT  EEEEE  PPPP        |
 |     C     A  A  S       T    E      P   P       |
 |     C     AAAA   SS     T    EEE    PPPP        |
 |     C     A  A     S    T    E      P           |
 |      CCC  A  A  SSS     T    EEEEE  P           |
 |                                                 |
 +-------------------------------------------------+
 |                                                 |
 | Welcome to Academic Release CASTEP version 19.11|          
 | Ab Initio Total Energy Program                  |
 |                                                 |
 | Authors:                                        |
 | M. Segall, M. Probert, C. Pickard, P. Hasnip,   |
 | S. Clark, K. Refson, J. R. Yates, M. Payne      |
 |                                                 |
 | Contributors:                                   |
 | P. Lindan, P. Haynes, J. White, V. Milman,      |
 | N. Govind, M. Gibson, P. Tulip, V. Cocula,      |
 | B. Montanari, D. Quigley, M. Glover,            |
 | L. Bernasconi, A. Perlov, M. Plummer,           |
 | E. McNellis, J. Meyer, J. Gale, D. Jochym       |
 | J. Aarons, B. Walker, R. Gillen, D. Jones       |
 | T. Green, I. J. Bush, C. J. Armstrong,          |
 | E. J. Higgins, E. L. Brown, M. S. McFly,        |
 | J. Wilkins, B-C. Shih, P. J. P. Byrne           |
 |                                                 |
 | Copyright (c) 2000 - 2018                       |
 |                                                 |
 |     Distributed under the terms of an           |
 |     Agreement between the United Kingdom        |
 |     Car-Parrinello (UKCP) Consortium,           |
 |     Daresbury Laboratory and Accelrys, Inc.     |
 |                                                 |
 | Please cite                                     |
 |                                                 |
 |     "First principles methods using CASTEP"     |
 |                                                 |
 |         Zeitschrift fuer Kristallographie       |
 |           220(5-6) pp. 567-570 (2005)           |
 |                                                 |
 | S. J. Clark, M. D. Segall, C. J. Pickard,       |
 | P. J. Hasnip, M. J. Probert, K. Refson,         |
 | M. C. Payne                                     |
 |                                                 |
 |       in all publications arising from          |
 |              your use of CASTEP                 |
 |                                                 |
 +-------------------------------------------------+
 |                                                 |
 |              http://www.castep.org              |
 |                                                 |
 +-------------------------------------------------+



 Compiled for linux_x86_64_gfortran7.0 on Fri, 31 Jan 2020 20:20:28 +0100
 from code version e1fe0d666396+ Castep191_branch Thu, 24 Oct 2019 13:54:03 +0100
 Compiler: GNU Fortran 7.4.0; Optimisation: fast
 MATHLIBS: default (LAPACK version 3.7.1)
 FFT Lib : default
 Fundamental constants values: CODATA 2014

 Run started: Sat, 06 Nov 2021 00:22:24 +0100

 Atomic calculation performed for O: 1s2 2s2 2p4

 Converged in 60 iterations to an ae energy of -2027.926 eV

   ============================================================                
   | Pseudopotential Report - Date of generation  6-11-2021   |                
   ------------------------------------------------------------                
   | Element: O Ionic charge:  6.00 Level of theory: LDA      |                
   | Atomic Solver: Koelling-Harmon                           |                
   |                                                          |                
   |               Reference Electronic Structure             |                
   |         Orbital         Occupation         Energy        |                
   |            2s              2.000           -0.873        |                
   |            2p              4.000           -0.338        |                
   |                                                          |                
   |                 Pseudopotential Definition               |                
   |        Beta     l      e      Rc     scheme   norm       |                
   |          1      0   -0.873   1.100     qc      0         |                
   |          2      0    0.250   1.100     qc      0         |                
   |          3      1   -0.338   1.100     qc      0         |                
   |          4      1    0.250   1.100     qc      0         |                
   |         loc     2    0.000   1.100     pn      0         |                
   |                                                          |                
   | Augmentation charge Rinner = 0.769                       |                
   | Partial core correction Rc = 0.769                       |                
   ------------------------------------------------------------                
   | "2|1.1|17|20|23|20:21(qc=8)"                             |                
   ------------------------------------------------------------                
   |      Author: Chris J. Pickard, Cambridge University      |                
   ============================================================                

 Atomic calculation performed for Al: 1s2 2s2 2p6 3s2 3p1

 Converged in 55 iterations to an ae energy of -6578.725 eV

   ============================================================                
   | Pseudopotential Report - Date of generation  6-11-2021   |                
   ------------------------------------------------------------                
   | Element: Al Ionic charge:  3.00 Level of theory: LDA     |                
   | Atomic Solver: Koelling-Harmon                           |                
   |                                                          |                
   |               Reference Electronic Structure             |                
   |         Orbital         Occupation         Energy        |                
   |            3s              2.000           -0.288        |                
   |            3p              1.000           -0.102        |                
   |                                                          |                
   |                 Pseudopotential Definition               |                
   |        Beta     l      e      Rc     scheme   norm       |                
   |          1      0   -0.288   2.192     qc      0         |                
   |          2      0    0.250   2.192     qc      0         |                
   |          3      1   -0.102   2.192     qc      0         |                
   |          4      1    0.250   2.192     qc      0         |                
   |          5      2    0.000   2.000     qc      0         |                
   |          6      2    0.250   2.000     qc      0         |                
   |         loc     3    0.000   2.192     pn      0         |                
   |                                                          |                
   | Augmentation charge Rinner = 1.398                       |                
   | Partial core correction Rc = 1.398                       |                
   ------------------------------------------------------------                
   | "3|2.2|2.2|1.4|4|5|5|30:31:32U2U2"                       |                
   ------------------------------------------------------------                
   |      Author: Chris J. Pickard, Cambridge University      |                
   ============================================================                

 Pseudo atomic calculation performed for O 2s2 2p4

 Converged in 24 iterations to a total energy of -431.0830 eV

 Pseudo atomic calculation performed for Al 3s2 3p1

 Converged in 15 iterations to a total energy of -105.5952 eV
 Calculation parallelised over 9 processes.
 Data is distributed by k-point(9-way)

 ************************************ Title ************************************
 

 ***************************** General Parameters ******************************
  
 output verbosity                               : normal  (1)
 write checkpoint data to                       : al2o3_xc-LDA_c-0600_k-5x5x5_geom.check
 type of calculation                            : geometry optimization
 stress calculation                             : off
 density difference calculation                 : off
 electron localisation func (ELF) calculation   : off
 Hirshfeld analysis                             : off
 unlimited duration calculation
 timing information                             : on
 memory usage estimate                          : on
 write extra output files                       : on
 write final potential to formatted file        : off
 write final density to formatted file          : off
 write structure in CIF formatted file          : on
 write structure in CELL formatted file         : on
 write BibTeX reference list                    : on
 write OTFG pseudopotential files               : on
 write electrostatic potential file             : on
 write bands file                               : on
 checkpoint writing                             : both castep_bin and check files
  
 output         length unit                     : A
 output           mass unit                     : amu
 output           time unit                     : ps
 output         charge unit                     : e
 output           spin unit                     : hbar/2
 output         energy unit                     : eV
 output          force unit                     : eV/A
 output       velocity unit                     : A/ps
 output       pressure unit                     : GPa
 output     inv_length unit                     : 1/A
 output      frequency unit                     : cm-1
 output force constant unit                     : eV/A**2
 output         volume unit                     : A**3
 output   IR intensity unit                     : (D/A)**2/amu
 output         dipole unit                     : D
 output         efield unit                     : eV/A/e
 output        entropy unit                     : J/mol/K
  
 wavefunctions paging                           : none
 random number generator seed                   : randomised (2224405)
 data distribution                              : optimal for this architecture
 optimization strategy                          : maximize speed(+++)

 *********************** Exchange-Correlation Parameters ***********************
  
 using functional                               : Local Density Approximation
 relativistic treatment                         : Koelling-Harmon
 DFT+D: Semi-empirical dispersion correction    : off

 ************************* Pseudopotential Parameters **************************
  
 pseudopotential representation                 : reciprocal space
 <beta|phi> representation                      : reciprocal space
 spin-orbit coupling                            : off

 **************************** Basis Set Parameters *****************************
  
 plane wave basis set cut-off                   :   600.0000   eV
 size of standard grid                          :     1.7500
 size of   fine   gmax                          :    21.9610   1/A
 finite basis set correction                    : automatic
 number of sample energies                      :          3
           sample  spacing                      :     5.0000   eV

 **************************** Electronic Parameters ****************************
  
 number of  electrons                           :  48.00    
 net charge of system                           :  0.000    
 treating system as non-spin-polarized
 number of bands                                :         29

 ********************* Electronic Minimization Parameters **********************
  
 Method: Treating system as metallic with density mixing treatment of electrons,
         and number of  SD  steps               :          1
         and number of  CG  steps               :          4
  
 total energy / atom convergence tol.           : 0.1000E-04   eV
 eigen-energy convergence tolerance             : 0.1000E-05   eV
 max force / atom convergence tol.              : ignored
 convergence tolerance window                   :          3   cycles
 max. number of SCF cycles                      :         30
 number of fixed-spin iterations                :         10
 smearing scheme                                : Gaussian
 smearing width                                 : 0.2000       eV
 Fermi energy convergence tolerance             : 0.2721E-13   eV
 periodic dipole correction                     : NONE

 ************************** Density Mixing Parameters **************************
  
 density-mixing scheme                          : Broyden
 max. length of mixing history                  :         20
 charge density mixing amplitude                : 0.8000    
 cut-off energy for mixing                      :  600.0       eV

 *********************** Population Analysis Parameters ************************
  
 Population analysis with cutoff                :  3.000       A
 Population analysis output                     : summary and pdos components

 ********************** Geometry Optimization Parameters ***********************
  
 optimization method                            : LBFGS
 max. no. of LBFGS updates                      : unbounded
 variable cell method                           : fixed basis quality
 max. number of steps                           :        150
 estimated bulk modulus                         :  500.0       GPa
 estimated <frequency>                          :  1668.       cm-1
 geom line minimiser                            : on
 with line minimiser tolerance                  :     0.4000
 total energy convergence tolerance             : 0.1000E-04   eV/atom
        max ionic |force| tolerance             : 0.1000E-01   eV/A
 max ionic |displacement| tolerance             : 0.1000E-02   A
   max |stress component| tolerance             : 0.1000       GPa
 convergence tolerance window                   :          2   steps
 backup results every                           :          5   steps
 write geom trajectory file                     : on

 *******************************************************************************
  

                           -------------------------------
                                      Unit Cell
                           -------------------------------
        Real Lattice(A)                      Reciprocal Lattice(1/A)
     2.3801000     1.3741510     4.3310000        1.319941454   0.762068577   0.483582396
    -2.3801000     1.3741510     4.3310000       -1.319941454   0.762068577   0.483582396
     0.0000000    -2.7483030     4.3310000       -0.000000000  -1.524137154   0.483582220

                       Lattice parameters(A)       Cell Angles
                    a =      5.129398          alpha =   55.292535
                    b =      5.129398          beta  =   55.292535
                    c =      5.129399          gamma =   55.292537

                       Current cell volume =            84.990269       A**3
                                   density =             2.399364   AMU/A**3
                                           =             3.984237     g/cm^3

                           -------------------------------
                                     Cell Contents
                           -------------------------------
                         Total number of ions in cell =   10
                      Total number of species in cell =    2
                        Max number of any one species =    6

            xxxxxxxxxxxxxxxxxxxxxxxxxxxxxxxxxxxxxxxxxxxxxxxxxxxxxxxxxxxx
            x  Element    Atom        Fractional coordinates of atoms  x
            x            Number           u          v          w      x
            x----------------------------------------------------------x
            x  O            1         0.556260   0.943740   0.250000   x 
            x  O            2         0.943740   0.250000   0.556260   x 
            x  O            3         0.250000   0.556260   0.943740   x 
            x  O            4         0.056260   0.750000   0.443740   x 
            x  O            5         0.750000   0.443740   0.056260   x 
            x  O            6         0.443740   0.056260   0.750000   x 
            x  Al           1         0.147900   0.147900   0.147900   x 
            x  Al           2         0.647900   0.647900   0.647900   x 
            x  Al           3         0.852100   0.852100   0.852100   x 
            x  Al           4         0.352100   0.352100   0.352100   x 
            xxxxxxxxxxxxxxxxxxxxxxxxxxxxxxxxxxxxxxxxxxxxxxxxxxxxxxxxxxxx


                         No user defined ionic velocities

                           -------------------------------
                                   Details of Species
                           -------------------------------

                               Mass of species in AMU
                                    O   15.9994000
                                    Al   26.9815400

                          Electric Quadrupole Moment (Barn)
                                    O   -0.0255800 Isotope 17
                                    Al    0.1466000 Isotope 27

                          Files used for pseudopotentials:
                                    O 2|1.1|17|20|23|20:21(qc=8)
                                    Al 3|2.2|2.2|1.4|4|5|5|30:31:32U2U2

                           -------------------------------
                              k-Points For BZ Sampling
                           -------------------------------
                       MP grid size for SCF calculation is  5  5  5
                            with an offset of   0.000  0.000  0.000
                       Number of kpoints used =            63

                           -------------------------------
                               Symmetry and Constraints
                           -------------------------------

                      Maximum deviation from symmetry =  0.00000         ANG

                      Number of symmetry operations   =           1
                      Number of ionic constraints     =           3
                      Point group of crystal =     1: C1, 1, 1
                      Space group of crystal =   167: R-3c, -R 3 2"c

             Set iprint > 1 for details on symmetry rotations/translations

                         Centre of mass is constrained
             Set iprint > 1 for details of linear ionic constraints

                         Number of cell constraints= 0
                         Cell constraints are:  1 2 3 4 5 6

                         External pressure/stress (GPa)
                          0.00000   0.00000   0.00000
                                    0.00000   0.00000
                                              0.00000
  
+---------------- MEMORY AND SCRATCH DISK ESTIMATES PER PROCESS --------------+
|                                                     Memory          Disk    |
| Baseline code, static data and system overhead      196.0 MB         0.0 MB |
| BLAS internal memory storage                          0.0 MB         0.0 MB |
| Model and support data                              127.4 MB         0.0 MB |
| Electronic energy minimisation requirements          34.8 MB         0.0 MB |
| Force calculation requirements                        6.8 MB         0.0 MB |
|                                               ----------------------------- |
| Approx. total storage required per process          358.2 MB         0.0 MB |
|                                                                             |
| Requirements will fluctuate during execution and may exceed these estimates |
+-----------------------------------------------------------------------------+
Calculating finite basis set correction with  3 cut-off energies.
Calculating total energy with cut-off of  590.000 eV.
------------------------------------------------------------------------ <-- SCF
SCF loop      Energy           Fermi           Energy gain       Timer   <-- SCF
                               energy          per atom          (sec)   <-- SCF
------------------------------------------------------------------------ <-- SCF
Initial  -2.24984917E+003  0.00000000E+000                         8.64  <-- SCF
      1  -2.87217078E+003  1.26044356E+001   6.22321608E+001      11.11  <-- SCF
      2  -3.09317061E+003  2.77560732E+000   2.20999830E+001      13.41  <-- SCF
      3  -3.09920930E+003  2.88624075E+000   6.03869139E-001      15.61  <-- SCF
      4  -3.09470802E+003  6.93228550E+000  -4.50128376E-001      18.12  <-- SCF
      5  -3.09125358E+003  5.36784941E+000  -3.45443799E-001      20.53  <-- SCF
      6  -3.09130119E+003  5.40597772E+000   4.76075679E-003      23.41  <-- SCF
      7  -3.09129398E+003  5.47133058E+000  -7.21395718E-004      26.00  <-- SCF
      8  -3.09129335E+003  5.51528057E+000  -6.26017217E-005      28.52  <-- SCF
      9  -3.09129310E+003  5.50284637E+000  -2.48816651E-005      30.86  <-- SCF
     10  -3.09129310E+003  5.50132849E+000  -3.67403423E-007      32.69  <-- SCF
     11  -3.09129310E+003  5.50131049E+000   1.38486578E-007      34.51  <-- SCF
------------------------------------------------------------------------ <-- SCF
 
Final energy, E             =  -3091.293098432     eV
Final free energy (E-TS)    =  -3091.293098432     eV
(energies not corrected for finite basis set)
 
NB est. 0K energy (E-0.5TS)      =  -3091.293098432     eV
 
Calculating total energy with cut-off of  595.000 eV.
------------------------------------------------------------------------ <-- SCF
SCF loop      Energy           Fermi           Energy gain       Timer   <-- SCF
                               energy          per atom          (sec)   <-- SCF
------------------------------------------------------------------------ <-- SCF
Initial  -3.09129310E+003  0.00000000E+000                        35.23  <-- SCF
      1  -3.09154978E+003  5.46971757E+000   2.56679432E-002      37.10  <-- SCF
      2  -3.09154988E+003  5.46973266E+000   1.09326861E-005      39.32  <-- SCF
      3  -3.09154988E+003  5.48246462E+000  -3.68047815E-007      41.58  <-- SCF
      4  -3.09154984E+003  5.47636175E+000  -4.54623117E-006      43.23  <-- SCF
------------------------------------------------------------------------ <-- SCF
 
Final energy, E             =  -3091.549835832     eV
Final free energy (E-TS)    =  -3091.549835832     eV
(energies not corrected for finite basis set)
 
NB est. 0K energy (E-0.5TS)      =  -3091.549835832     eV
 
Calculating total energy with cut-off of  600.000 eV.
------------------------------------------------------------------------ <-- SCF
SCF loop      Energy           Fermi           Energy gain       Timer   <-- SCF
                               energy          per atom          (sec)   <-- SCF
------------------------------------------------------------------------ <-- SCF
Initial  -3.09154983E+003  0.00000000E+000                        43.95  <-- SCF
      1  -3.09178414E+003  5.46719881E+000   2.34301189E-002      45.81  <-- SCF
      2  -3.09178424E+003  5.46720774E+000   1.00200917E-005      48.02  <-- SCF
      3  -3.09178423E+003  5.47984898E+000  -5.72001701E-007      50.27  <-- SCF
      4  -3.09178419E+003  5.47392037E+000  -4.38888681E-006      51.90  <-- SCF
------------------------------------------------------------------------ <-- SCF
 
Final energy, E             =  -3091.784186699     eV
Final free energy (E-TS)    =  -3091.784186699     eV
(energies not corrected for finite basis set)
 
NB est. 0K energy (E-0.5TS)      =  -3091.784186699     eV
 
 For future reference: finite basis dEtot/dlog(Ecut) =     -28.960023eV
 Total energy corrected for finite basis set =   -3091.783071 eV
 
+---------------- MEMORY AND SCRATCH DISK ESTIMATES PER PROCESS --------------+
|                                                     Memory          Disk    |
| Model and support data                              137.2 MB         0.0 MB |
| Electronic energy minimisation requirements          34.8 MB         0.0 MB |
| Geometry minimisation requirements                   44.8 MB         0.0 MB |
|                                               ----------------------------- |
| Approx. total storage required per process          216.8 MB         0.0 MB |
|                                                                             |
| Requirements will fluctuate during execution and may exceed these estimates |
+-----------------------------------------------------------------------------+
 

 ************************************** Forces **************************************
 *                                                                                  *
 *                           Cartesian components (eV/A)                            *
 * -------------------------------------------------------------------------------- *
 *                         x                    y                    z              *
 *                                                                                  *
 * O               1     -0.02041              0.00000             -0.00002         *
 * O               2      0.01018              0.01767              0.00002         *
 * O               3      0.01019             -0.01767              0.00000         *
 * O               4     -0.01018             -0.01767             -0.00002         *
 * O               5     -0.01019              0.01768              0.00001         *
 * O               6      0.02040             -0.00001              0.00000         *
 * Al              1     -0.00000              0.00001              0.02845         *
 * Al              2      0.00001             -0.00000              0.02846         *
 * Al              3      0.00000             -0.00001             -0.02845         *
 * Al              4     -0.00000              0.00000             -0.02846         *
 *                                                                                  *
 ************************************************************************************

 ***************** Stress Tensor *****************
 *                                               *
 *          Cartesian components (GPa)           *
 * --------------------------------------------- *
 *             x             y             z     *
 *                                               *
 *  x      1.191464      0.000002     -0.000025  *
 *  y      0.000002      1.191399     -0.000044  *
 *  z     -0.000025     -0.000044      1.379730  *
 *                                               *
 *  Pressure:   -1.2542                          *
 *                                               *
 *************************************************
 LBFGS: finished iteration     0 with enthalpy= -3.09178307E+003 eV
  
 +-----------+-----------------+-----------------+------------+-----+ <-- LBFGS
 | Parameter |      value      |    tolerance    |    units   | OK? | <-- LBFGS
 +-----------+-----------------+-----------------+------------+-----+ <-- LBFGS
 |  dE/ion   |   0.000000E+000 |   1.000000E-005 |         eV | No  | <-- LBFGS
 |  |F|max   |   2.845560E-002 |   1.000000E-002 |       eV/A | No  | <-- LBFGS
 |  |dR|max  |   0.000000E+000 |   1.000000E-003 |          A | No  | <-- LBFGS
 |   Smax    |   1.379730E+000 |   1.000000E-001 |        GPa | No  | <-- LBFGS
 +-----------+-----------------+-----------------+------------+-----+ <-- LBFGS
  

================================================================================
 Starting LBFGS iteration          1 ...
================================================================================
  
 +------------+-------------+-------------+-----------------+ <-- min LBFGS
 |    Step    |   lambda    |   F.delta'  |    enthalpy     | <-- min LBFGS
 +------------+-------------+-------------+-----------------+ <-- min LBFGS
 |  previous  |    0.000000 |    0.043085 |    -3091.783071 | <-- min LBFGS
 +------------+-------------+-------------+-----------------+ <-- min LBFGS
  

--------------------------------------------------------------------------------
 LBFGS: starting iteration         1 with trial guess (lambda=  1.000000)
--------------------------------------------------------------------------------

                           -------------------------------
                                      Unit Cell
                           -------------------------------
        Real Lattice(A)              Reciprocal Lattice(1/A)
     2.3782095     1.3730597     4.3270163        1.320990721   0.762674331   0.484027570
    -2.3782094     1.3730597     4.3270163       -1.320990736   0.762674328   0.484027614
     0.0000001    -2.7461200     4.3270162       -0.000000010  -1.525348701   0.484027483

                       Lattice parameters(A)       Cell Angles
                    a =      5.124865          alpha =   55.297913
                    b =      5.124865          beta  =   55.297912
                    c =      5.124865          gamma =   55.297912

                Current cell volume =            84.777257 A**3
                            density =             2.405392 amu/A**3
                                    =             3.994248 g/cm^3

                           -------------------------------
                                     Cell Contents
                           -------------------------------

            xxxxxxxxxxxxxxxxxxxxxxxxxxxxxxxxxxxxxxxxxxxxxxxxxxxxxxxxxxxxxxxxx
            x  Element         Atom        Fractional coordinates of atoms  x
            x                 Number           u          v          w      x
            x---------------------------------------------------------------x
            x  O                 1         0.556239   0.943761   0.250000   x
            x  O                 2         0.943761   0.250000   0.556239   x
            x  O                 3         0.250000   0.556239   0.943760   x
            x  O                 4         0.056239   0.750000   0.443761   x
            x  O                 5         0.750000   0.443761   0.056239   x
            x  O                 6         0.443761   0.056240   0.750000   x
            x  Al                1         0.147911   0.147911   0.147910   x
            x  Al                2         0.647911   0.647911   0.647910   x
            x  Al                3         0.852090   0.852090   0.852089   x
            x  Al                4         0.352090   0.352090   0.352089   x
            xxxxxxxxxxxxxxxxxxxxxxxxxxxxxxxxxxxxxxxxxxxxxxxxxxxxxxxxxxxxxxxxx


------------------------------------------------------------------------ <-- SCF
SCF loop      Energy           Fermi           Energy gain       Timer   <-- SCF
                               energy          per atom          (sec)   <-- SCF
------------------------------------------------------------------------ <-- SCF
Initial  -3.09179530E+003  0.00000000E+000                        60.72  <-- SCF
      1  -3.09180389E+003  5.54559990E+000   8.59340515E-004      63.39  <-- SCF
      2  -3.09180394E+003  5.54559940E+000   4.59396567E-006      65.58  <-- SCF
      3  -3.09180250E+003  5.46029031E+000  -1.43301637E-004      68.39  <-- SCF
      4  -3.09180035E+003  5.49968469E+000  -2.15731675E-004      70.87  <-- SCF
      5  -3.09180037E+003  5.50017760E+000   1.93697150E-006      72.52  <-- SCF
      6  -3.09180037E+003  5.50020723E+000   2.45115120E-007      74.09  <-- SCF
------------------------------------------------------------------------ <-- SCF
 
Final energy, E             =  -3091.800367710     eV
Final free energy (E-TS)    =  -3091.800367710     eV
(energies not corrected for finite basis set)
 
NB est. 0K energy (E-0.5TS)      =  -3091.800367710     eV
 

 ************************************** Forces **************************************
 *                                                                                  *
 *                           Cartesian components (eV/A)                            *
 * -------------------------------------------------------------------------------- *
 *                         x                    y                    z              *
 *                                                                                  *
 * O               1     -0.01651              0.00002              0.00001         *
 * O               2      0.00824              0.01430             -0.00003         *
 * O               3      0.00825             -0.01429              0.00001         *
 * O               4     -0.00825             -0.01430              0.00003         *
 * O               5     -0.00825              0.01428              0.00000         *
 * O               6      0.01651             -0.00001             -0.00001         *
 * Al              1      0.00000              0.00001              0.02642         *
 * Al              2     -0.00000             -0.00001              0.02642         *
 * Al              3      0.00000             -0.00001             -0.02642         *
 * Al              4      0.00000              0.00001             -0.02642         *
 *                                                                                  *
 ************************************************************************************

 ***************** Stress Tensor *****************
 *                                               *
 *          Cartesian components (GPa)           *
 * --------------------------------------------- *
 *             x             y             z     *
 *                                               *
 *  x      0.440753      0.000015      0.000032  *
 *  y      0.000015      0.440696     -0.000007  *
 *  z      0.000032     -0.000007      0.670585  *
 *                                               *
 *  Pressure:   -0.5173                          *
 *                                               *
 *************************************************
  
 +------------+-------------+-------------+-----------------+ <-- min LBFGS
 |    Step    |   lambda    |   F.delta'  |    enthalpy     | <-- min LBFGS
 +------------+-------------+-------------+-----------------+ <-- min LBFGS
 |  previous  |    0.000000 |    0.043085 |    -3091.783071 | <-- min LBFGS
 | trial step |    1.000000 |    0.018236 |    -3091.786764 | <-- min LBFGS
 +------------+-------------+-------------+-----------------+ <-- min LBFGS
  

--------------------------------------------------------------------------------
 LBFGS: improving iteration         1 with line minimization (lambda=  1.733844)
--------------------------------------------------------------------------------

                           -------------------------------
                                      Unit Cell
                           -------------------------------
        Real Lattice(A)              Reciprocal Lattice(1/A)
     2.3768222     1.3722588     4.3240930        1.321761782   0.763119472   0.484354780
    -2.3768220     1.3722588     4.3240928       -1.321761807   0.763119467   0.484354856
     0.0000001    -2.7445180     4.3240927       -0.000000017  -1.526239013   0.484354758

                       Lattice parameters(A)       Cell Angles
                    a =      5.121539          alpha =   55.301865
                    b =      5.121538          beta  =   55.301864
                    c =      5.121538          gamma =   55.301862

                Current cell volume =            84.621166 A**3
                            density =             2.409829 amu/A**3
                                    =             4.001616 g/cm^3

                           -------------------------------
                                     Cell Contents
                           -------------------------------

            xxxxxxxxxxxxxxxxxxxxxxxxxxxxxxxxxxxxxxxxxxxxxxxxxxxxxxxxxxxxxxxxx
            x  Element         Atom        Fractional coordinates of atoms  x
            x                 Number           u          v          w      x
            x---------------------------------------------------------------x
            x  O                 1         0.556224   0.943776   0.250000   x
            x  O                 2         0.943776   0.250000   0.556224   x
            x  O                 3         0.250000   0.556224   0.943776   x
            x  O                 4         0.056224   0.750000   0.443776   x
            x  O                 5         0.750000   0.443776   0.056224   x
            x  O                 6         0.443776   0.056224   0.750000   x
            x  Al                1         0.147918   0.147918   0.147918   x
            x  Al                2         0.647918   0.647918   0.647918   x
            x  Al                3         0.852082   0.852082   0.852082   x
            x  Al                4         0.352082   0.352082   0.352082   x
            xxxxxxxxxxxxxxxxxxxxxxxxxxxxxxxxxxxxxxxxxxxxxxxxxxxxxxxxxxxxxxxxx


------------------------------------------------------------------------ <-- SCF
SCF loop      Energy           Fermi           Energy gain       Timer   <-- SCF
                               energy          per atom          (sec)   <-- SCF
------------------------------------------------------------------------ <-- SCF
Initial  -3.09179880E+003  0.00000000E+000                        82.88  <-- SCF
      1  -3.09180352E+003  5.54988367E+000   4.72198845E-004      85.51  <-- SCF
      2  -3.09180354E+003  5.54988311E+000   2.38571896E-006      87.56  <-- SCF
      3  -3.09180281E+003  5.48887111E+000  -7.32642543E-005      90.35  <-- SCF
      4  -3.09180173E+003  5.51648837E+000  -1.08253565E-004      92.87  <-- SCF
      5  -3.09180174E+003  5.51691274E+000   9.66512162E-007      94.40  <-- SCF
      6  -3.09180174E+003  5.51694507E+000   1.45652925E-007      95.88  <-- SCF
------------------------------------------------------------------------ <-- SCF
 
Final energy, E             =  -3091.801739743     eV
Final free energy (E-TS)    =  -3091.801739743     eV
(energies not corrected for finite basis set)
 
NB est. 0K energy (E-0.5TS)      =  -3091.801739743     eV
 

 ************************************** Forces **************************************
 *                                                                                  *
 *                           Cartesian components (eV/A)                            *
 * -------------------------------------------------------------------------------- *
 *                         x                    y                    z              *
 *                                                                                  *
 * O               1     -0.01320              0.00001              0.00000         *
 * O               2      0.00659              0.01142             -0.00001         *
 * O               3      0.00658             -0.01142             -0.00000         *
 * O               4     -0.00659             -0.01142              0.00001         *
 * O               5     -0.00659              0.01142              0.00000         *
 * O               6      0.01321             -0.00001             -0.00000         *
 * Al              1     -0.00000              0.00001              0.02484         *
 * Al              2     -0.00000             -0.00000              0.02484         *
 * Al              3      0.00000             -0.00001             -0.02484         *
 * Al              4     -0.00000              0.00001             -0.02484         *
 *                                                                                  *
 ************************************************************************************

 ***************** Stress Tensor *****************
 *                                               *
 *          Cartesian components (GPa)           *
 * --------------------------------------------- *
 *             x             y             z     *
 *                                               *
 *  x      0.039616      0.000005      0.000009  *
 *  y      0.000005      0.039622      0.000015  *
 *  z      0.000009      0.000015      0.220280  *
 *                                               *
 *  Pressure:   -0.0998                          *
 *                                               *
 *************************************************
  
 +------------+-------------+-------------+-----------------+ <-- min LBFGS
 |    Step    |   lambda    |   F.delta'  |    enthalpy     | <-- min LBFGS
 +------------+-------------+-------------+-----------------+ <-- min LBFGS
 |  previous  |    0.000000 |    0.043085 |    -3091.783071 | <-- min LBFGS
 | trial step |    1.000000 |    0.018236 |    -3091.786764 | <-- min LBFGS
 |  line step |    1.733844 |    0.004088 |    -3091.790242 | <-- min LBFGS
 +------------+-------------+-------------+-----------------+ <-- min LBFGS
  
 LBFGS: finished iteration     1 with enthalpy= -3.09179024E+003 eV
  
 +-----------+-----------------+-----------------+------------+-----+ <-- LBFGS
 | Parameter |      value      |    tolerance    |    units   | OK? | <-- LBFGS
 +-----------+-----------------+-----------------+------------+-----+ <-- LBFGS
 |  dE/ion   |   7.171435E-004 |   1.000000E-005 |         eV | No  | <-- LBFGS
 |  |F|max   |   2.483774E-002 |   1.000000E-002 |       eV/A | No  | <-- LBFGS
 |  |dR|max  |   2.361461E-004 |   1.000000E-003 |          A | Yes | <-- LBFGS
 |   Smax    |   2.202802E-001 |   1.000000E-001 |        GPa | No  | <-- LBFGS
 +-----------+-----------------+-----------------+------------+-----+ <-- LBFGS
  

================================================================================
 Starting LBFGS iteration          2 ...
================================================================================
  
 +------------+-------------+-------------+-----------------+ <-- min LBFGS
 |    Step    |   lambda    |   F.delta'  |    enthalpy     | <-- min LBFGS
 +------------+-------------+-------------+-----------------+ <-- min LBFGS
 |  previous  |    0.000000 |    0.006701 |    -3091.790242 | <-- min LBFGS
 +------------+-------------+-------------+-----------------+ <-- min LBFGS
  

--------------------------------------------------------------------------------
 LBFGS: starting iteration         2 with trial guess (lambda=  1.000000)
--------------------------------------------------------------------------------

                           -------------------------------
                                      Unit Cell
                           -------------------------------
        Real Lattice(A)              Reciprocal Lattice(1/A)
     2.3765810     1.3721195     4.3230298        1.321895936   0.763196932   0.484473905
    -2.3765808     1.3721195     4.3230297       -1.321895951   0.763196918   0.484473968
     0.0000001    -2.7442395     4.3230296       -0.000000020  -1.526393912   0.484473857

                       Lattice parameters(A)       Cell Angles
                    a =      5.120492          alpha =   55.308045
                    b =      5.120492          beta  =   55.308044
                    c =      5.120492          gamma =   55.308043

                Current cell volume =            84.583191 A**3
                            density =             2.410911 amu/A**3
                                    =             4.003412 g/cm^3

                           -------------------------------
                                     Cell Contents
                           -------------------------------

            xxxxxxxxxxxxxxxxxxxxxxxxxxxxxxxxxxxxxxxxxxxxxxxxxxxxxxxxxxxxxxxxx
            x  Element         Atom        Fractional coordinates of atoms  x
            x                 Number           u          v          w      x
            x---------------------------------------------------------------x
            x  O                 1         0.556208   0.943792   0.250000   x
            x  O                 2         0.943792   0.250000   0.556208   x
            x  O                 3         0.250000   0.556208   0.943792   x
            x  O                 4         0.056208   0.750000   0.443792   x
            x  O                 5         0.750000   0.443792   0.056208   x
            x  O                 6         0.443792   0.056208   0.750000   x
            x  Al                1         0.147929   0.147929   0.147929   x
            x  Al                2         0.647929   0.647929   0.647929   x
            x  Al                3         0.852071   0.852071   0.852071   x
            x  Al                4         0.352071   0.352071   0.352071   x
            xxxxxxxxxxxxxxxxxxxxxxxxxxxxxxxxxxxxxxxxxxxxxxxxxxxxxxxxxxxxxxxxx


------------------------------------------------------------------------ <-- SCF
SCF loop      Energy           Fermi           Energy gain       Timer   <-- SCF
                               energy          per atom          (sec)   <-- SCF
------------------------------------------------------------------------ <-- SCF
Initial  -3.09179578E+003  0.00000000E+000                       103.49  <-- SCF
      1  -3.09179644E+003  5.52698911E+000   6.65327920E-005     105.94  <-- SCF
      2  -3.09179645E+003  5.52698903E+000   3.87126442E-007     107.50  <-- SCF
      3  -3.09179638E+003  5.51522539E+000  -6.80550259E-006     109.77  <-- SCF
      4  -3.09179633E+003  5.52109395E+000  -4.53598211E-006     111.24  <-- SCF
      5  -3.09179634E+003  5.52178367E+000   2.62826502E-007     112.70  <-- SCF
------------------------------------------------------------------------ <-- SCF
 
Final energy, E             =  -3091.796336227     eV
Final free energy (E-TS)    =  -3091.796336227     eV
(energies not corrected for finite basis set)
 
NB est. 0K energy (E-0.5TS)      =  -3091.796336227     eV
 

 ************************************** Forces **************************************
 *                                                                                  *
 *                           Cartesian components (eV/A)                            *
 * -------------------------------------------------------------------------------- *
 *                         x                    y                    z              *
 *                                                                                  *
 * O               1     -0.01311              0.00001              0.00000         *
 * O               2      0.00655              0.01135             -0.00001         *
 * O               3      0.00654             -0.01134              0.00000         *
 * O               4     -0.00655             -0.01134              0.00000         *
 * O               5     -0.00654              0.01134             -0.00000         *
 * O               6      0.01311             -0.00001              0.00000         *
 * Al              1      0.00000              0.00000              0.02118         *
 * Al              2     -0.00000             -0.00000              0.02118         *
 * Al              3     -0.00000             -0.00000             -0.02117         *
 * Al              4      0.00000              0.00000             -0.02118         *
 *                                                                                  *
 ************************************************************************************

 ***************** Stress Tensor *****************
 *                                               *
 *          Cartesian components (GPa)           *
 * --------------------------------------------- *
 *             x             y             z     *
 *                                               *
 *  x     -0.014491      0.000002      0.000004  *
 *  y      0.000002     -0.014519     -0.000012  *
 *  z      0.000004     -0.000012      0.102015  *
 *                                               *
 *  Pressure:   -0.0243                          *
 *                                               *
 *************************************************
  
 +------------+-------------+-------------+-----------------+ <-- min LBFGS
 |    Step    |   lambda    |   F.delta'  |    enthalpy     | <-- min LBFGS
 +------------+-------------+-------------+-----------------+ <-- min LBFGS
 |  previous  |    0.000000 |    0.006701 |    -3091.790242 | <-- min LBFGS
 | trial step |    1.000000 |    0.003772 |    -3091.791264 | <-- min LBFGS
 +------------+-------------+-------------+-----------------+ <-- min LBFGS
  

--------------------------------------------------------------------------------
 LBFGS: improving iteration         2 with line minimization (lambda=  2.287758)
--------------------------------------------------------------------------------

                           -------------------------------
                                      Unit Cell
                           -------------------------------
        Real Lattice(A)              Reciprocal Lattice(1/A)
     2.3762703     1.3719401     4.3216607        1.322068734   0.763296706   0.484627396
    -2.3762702     1.3719402     4.3216607       -1.322068735   0.763296679   0.484627442
     0.0000001    -2.7438809     4.3216606       -0.000000024  -1.526593429   0.484627314

                       Lattice parameters(A)       Cell Angles
                    a =      5.119144          alpha =   55.316007
                    b =      5.119144          beta  =   55.316005
                    c =      5.119144          gamma =   55.316005

                Current cell volume =            84.534304 A**3
                            density =             2.412305 amu/A**3
                                    =             4.005727 g/cm^3

                           -------------------------------
                                     Cell Contents
                           -------------------------------

            xxxxxxxxxxxxxxxxxxxxxxxxxxxxxxxxxxxxxxxxxxxxxxxxxxxxxxxxxxxxxxxxx
            x  Element         Atom        Fractional coordinates of atoms  x
            x                 Number           u          v          w      x
            x---------------------------------------------------------------x
            x  O                 1         0.556187   0.943813   0.250000   x
            x  O                 2         0.943814   0.250000   0.556186   x
            x  O                 3         0.250000   0.556187   0.943813   x
            x  O                 4         0.056187   0.750000   0.443813   x
            x  O                 5         0.750000   0.443814   0.056186   x
            x  O                 6         0.443813   0.056187   0.750000   x
            x  Al                1         0.147944   0.147944   0.147943   x
            x  Al                2         0.647944   0.647944   0.647943   x
            x  Al                3         0.852057   0.852057   0.852056   x
            x  Al                4         0.352057   0.352057   0.352056   x
            xxxxxxxxxxxxxxxxxxxxxxxxxxxxxxxxxxxxxxxxxxxxxxxxxxxxxxxxxxxxxxxxx


------------------------------------------------------------------------ <-- SCF
SCF loop      Energy           Fermi           Energy gain       Timer   <-- SCF
                               energy          per atom          (sec)   <-- SCF
------------------------------------------------------------------------ <-- SCF
Initial  -3.09179741E+003  0.00000000E+000                       120.35  <-- SCF
      1  -3.09179830E+003  5.53669290E+000   8.96388881E-005     123.03  <-- SCF
      2  -3.09179831E+003  5.53669279E+000   4.39866197E-007     124.63  <-- SCF
      3  -3.09179817E+003  5.51725674E+000  -1.34775302E-005     127.30  <-- SCF
      4  -3.09179806E+003  5.52672921E+000  -1.16568223E-005     129.26  <-- SCF
      5  -3.09179806E+003  5.52673935E+000   1.43576594E-007     130.68  <-- SCF
      6  -3.09179806E+003  5.52666006E+000   2.08957940E-008     132.10  <-- SCF
------------------------------------------------------------------------ <-- SCF
 
Final energy, E             =  -3091.798056891     eV
Final free energy (E-TS)    =  -3091.798056891     eV
(energies not corrected for finite basis set)
 
NB est. 0K energy (E-0.5TS)      =  -3091.798056891     eV
 

 ************************************** Forces **************************************
 *                                                                                  *
 *                           Cartesian components (eV/A)                            *
 * -------------------------------------------------------------------------------- *
 *                         x                    y                    z              *
 *                                                                                  *
 * O               1     -0.00894              0.00000             -0.00000         *
 * O               2      0.00447              0.00774             -0.00000         *
 * O               3      0.00447             -0.00774              0.00000         *
 * O               4     -0.00447             -0.00774              0.00000         *
 * O               5     -0.00447              0.00774             -0.00000         *
 * O               6      0.00894             -0.00000              0.00000         *
 * Al              1      0.00000              0.00000              0.01685         *
 * Al              2     -0.00000             -0.00000              0.01685         *
 * Al              3     -0.00000             -0.00000             -0.01685         *
 * Al              4      0.00000              0.00000             -0.01685         *
 *                                                                                  *
 ************************************************************************************

 ***************** Stress Tensor *****************
 *                                               *
 *          Cartesian components (GPa)           *
 * --------------------------------------------- *
 *             x             y             z     *
 *                                               *
 *  x     -0.065510      0.000001      0.000015  *
 *  y      0.000001     -0.065504     -0.000013  *
 *  z      0.000015     -0.000013     -0.048373  *
 *                                               *
 *  Pressure:    0.0598                          *
 *                                               *
 *************************************************
  
 +------------+-------------+-------------+-----------------+ <-- min LBFGS
 |    Step    |   lambda    |   F.delta'  |    enthalpy     | <-- min LBFGS
 +------------+-------------+-------------+-----------------+ <-- min LBFGS
 |  previous  |    0.000000 |    0.006701 |    -3091.790242 | <-- min LBFGS
 | trial step |    1.000000 |    0.003772 |    -3091.791264 | <-- min LBFGS
 |  line step |    2.287758 |    0.000073 |    -3091.792016 | <-- min LBFGS
 +------------+-------------+-------------+-----------------+ <-- min LBFGS
  
 LBFGS: finished iteration     2 with enthalpy= -3.09179202E+003 eV
  
 +-----------+-----------------+-----------------+------------+-----+ <-- LBFGS
 | Parameter |      value      |    tolerance    |    units   | OK? | <-- LBFGS
 +-----------+-----------------+-----------------+------------+-----+ <-- LBFGS
 |  dE/ion   |   1.774071E-004 |   1.000000E-005 |         eV | No  | <-- LBFGS
 |  |F|max   |   1.684901E-002 |   1.000000E-002 |       eV/A | No  | <-- LBFGS
 |  |dR|max  |   3.281584E-004 |   1.000000E-003 |          A | Yes | <-- LBFGS
 |   Smax    |   6.550975E-002 |   1.000000E-001 |        GPa | Yes | <-- LBFGS
 +-----------+-----------------+-----------------+------------+-----+ <-- LBFGS
  

================================================================================
 Starting LBFGS iteration          3 ...
================================================================================
  
 +------------+-------------+-------------+-----------------+ <-- min LBFGS
 |    Step    |   lambda    |   F.delta'  |    enthalpy     | <-- min LBFGS
 +------------+-------------+-------------+-----------------+ <-- min LBFGS
 |  previous  |    0.000000 |    0.006475 |    -3091.792016 | <-- min LBFGS
 +------------+-------------+-------------+-----------------+ <-- min LBFGS
  

--------------------------------------------------------------------------------
 LBFGS: starting iteration         3 with trial guess (lambda=  1.000000)
--------------------------------------------------------------------------------

                           -------------------------------
                                      Unit Cell
                           -------------------------------
        Real Lattice(A)              Reciprocal Lattice(1/A)
     2.3763596     1.3719917     4.3216462        1.322019051   0.763268020   0.484629036
    -2.3763596     1.3719918     4.3216462       -1.322019039   0.763267989   0.484629051
     0.0000001    -2.7439840     4.3216460       -0.000000021  -1.526536063   0.484628952

                       Lattice parameters(A)       Cell Angles
                    a =      5.119187          alpha =   55.317759
                    b =      5.119187          beta  =   55.317758
                    c =      5.119187          gamma =   55.317757

                Current cell volume =            84.540374 A**3
                            density =             2.412132 amu/A**3
                                    =             4.005440 g/cm^3

                           -------------------------------
                                     Cell Contents
                           -------------------------------

            xxxxxxxxxxxxxxxxxxxxxxxxxxxxxxxxxxxxxxxxxxxxxxxxxxxxxxxxxxxxxxxxx
            x  Element         Atom        Fractional coordinates of atoms  x
            x                 Number           u          v          w      x
            x---------------------------------------------------------------x
            x  O                 1         0.556174   0.943826   0.250000   x
            x  O                 2         0.943826   0.250000   0.556174   x
            x  O                 3         0.250000   0.556174   0.943826   x
            x  O                 4         0.056174   0.750000   0.443826   x
            x  O                 5         0.750000   0.443826   0.056174   x
            x  O                 6         0.443826   0.056174   0.750000   x
            x  Al                1         0.147952   0.147952   0.147952   x
            x  Al                2         0.647952   0.647952   0.647952   x
            x  Al                3         0.852048   0.852048   0.852048   x
            x  Al                4         0.352048   0.352048   0.352048   x
            xxxxxxxxxxxxxxxxxxxxxxxxxxxxxxxxxxxxxxxxxxxxxxxxxxxxxxxxxxxxxxxxx


------------------------------------------------------------------------ <-- SCF
SCF loop      Energy           Fermi           Energy gain       Timer   <-- SCF
                               energy          per atom          (sec)   <-- SCF
------------------------------------------------------------------------ <-- SCF
Initial  -3.09179664E+003  0.00000000E+000                       139.69  <-- SCF
      1  -3.09179734E+003  5.52371632E+000   6.98964889E-005     141.39  <-- SCF
      2  -3.09179734E+003  5.52371628E+000   2.68860716E-007     142.81  <-- SCF
      3  -3.09179732E+003  5.52664372E+000  -1.78844100E-006     144.24  <-- SCF
      4  -3.09179732E+003  5.52558309E+000  -4.53830369E-008     145.66  <-- SCF
------------------------------------------------------------------------ <-- SCF
 
Final energy, E             =  -3091.797320988     eV
Final free energy (E-TS)    =  -3091.797320988     eV
(energies not corrected for finite basis set)
 
NB est. 0K energy (E-0.5TS)      =  -3091.797320988     eV
 

 ************************************** Forces **************************************
 *                                                                                  *
 *                           Cartesian components (eV/A)                            *
 * -------------------------------------------------------------------------------- *
 *                         x                    y                    z              *
 *                                                                                  *
 * O               1     -0.01660              0.00001              0.00000         *
 * O               2      0.00830              0.01437             -0.00001         *
 * O               3      0.00830             -0.01438             -0.00000         *
 * O               4     -0.00830             -0.01437              0.00001         *
 * O               5     -0.00830              0.01438             -0.00000         *
 * O               6      0.01661             -0.00000             -0.00000         *
 * Al              1      0.00000              0.00000              0.01457         *
 * Al              2     -0.00000             -0.00000              0.01457         *
 * Al              3     -0.00000             -0.00000             -0.01457         *
 * Al              4      0.00000             -0.00000             -0.01457         *
 *                                                                                  *
 ************************************************************************************

 ***************** Stress Tensor *****************
 *                                               *
 *          Cartesian components (GPa)           *
 * --------------------------------------------- *
 *             x             y             z     *
 *                                               *
 *  x     -0.036857     -0.000002      0.000002  *
 *  y     -0.000002     -0.036846      0.000001  *
 *  z      0.000002      0.000001     -0.047860  *
 *                                               *
 *  Pressure:    0.0405                          *
 *                                               *
 *************************************************
  
 +------------+-------------+-------------+-----------------+ <-- min LBFGS
 |    Step    |   lambda    |   F.delta'  |    enthalpy     | <-- min LBFGS
 +------------+-------------+-------------+-----------------+ <-- min LBFGS
 |  previous  |    0.000000 |    0.006475 |    -3091.792016 | <-- min LBFGS
 | trial step |    1.000000 |    0.006749 |    -3091.792007 | <-- min LBFGS
 +------------+-------------+-------------+-----------------+ <-- min LBFGS
  

--------------------------------------------------------------------------------
 LBFGS: improving iteration         3 with line minimization (lambda=-23.619998)
--------------------------------------------------------------------------------

                           -------------------------------
                                      Unit Cell
                           -------------------------------
        Real Lattice(A)              Reciprocal Lattice(1/A)
     2.3741620     1.3707217     4.3220044        1.323243324   0.763974887   0.484588671
    -2.3741594     1.3707216     4.3220030       -1.323243643   0.763974956   0.484589433
     0.0000012    -2.7414459     4.3220041       -0.000000099  -1.527949675   0.484588611

                       Lattice parameters(A)       Cell Angles
                    a =      5.118129          alpha =   55.274607
                    b =      5.118127          beta  =   55.274596
                    c =      5.118129          gamma =   55.274602

                Current cell volume =            84.390985 A**3
                            density =             2.416402 amu/A**3
                                    =             4.012530 g/cm^3

                           -------------------------------
                                     Cell Contents
                           -------------------------------

            xxxxxxxxxxxxxxxxxxxxxxxxxxxxxxxxxxxxxxxxxxxxxxxxxxxxxxxxxxxxxxxxx
            x  Element         Atom        Fractional coordinates of atoms  x
            x                 Number           u          v          w      x
            x---------------------------------------------------------------x
            x  O                 1         0.556478   0.943522   0.250000   x
            x  O                 2         0.943523   0.250000   0.556478   x
            x  O                 3         0.250000   0.556478   0.943522   x
            x  O                 4         0.056478   0.750000   0.443522   x
            x  O                 5         0.750000   0.443522   0.056478   x
            x  O                 6         0.443522   0.056478   0.750000   x
            x  Al                1         0.147742   0.147743   0.147743   x
            x  Al                2         0.647743   0.647743   0.647742   x
            x  Al                3         0.852258   0.852258   0.852257   x
            x  Al                4         0.352257   0.352258   0.352257   x
            xxxxxxxxxxxxxxxxxxxxxxxxxxxxxxxxxxxxxxxxxxxxxxxxxxxxxxxxxxxxxxxxx


------------------------------------------------------------------------ <-- SCF
SCF loop      Energy           Fermi           Energy gain       Timer   <-- SCF
                               energy          per atom          (sec)   <-- SCF
------------------------------------------------------------------------ <-- SCF
Initial  -3.09177293E+003  0.00000000E+000                       154.52  <-- SCF
      1  -3.09180878E+003  5.59139247E+000   3.58566306E-003     156.71  <-- SCF
      2  -3.09180943E+003  5.59138109E+000   6.46215539E-005     159.27  <-- SCF
      3  -3.09179944E+003  5.52365326E+000  -9.98787564E-004     161.63  <-- SCF
      4  -3.09179871E+003  5.55461070E+000  -7.32283533E-005     164.17  <-- SCF
      5  -3.09179861E+003  5.54659788E+000  -1.03624261E-005     166.41  <-- SCF
      6  -3.09179861E+003  5.54487724E+000   3.49772512E-008     167.98  <-- SCF
      7  -3.09179861E+003  5.54512344E+000   1.13096978E-007     169.41  <-- SCF
------------------------------------------------------------------------ <-- SCF
 
Final energy, E             =  -3091.798607610     eV
Final free energy (E-TS)    =  -3091.798607610     eV
(energies not corrected for finite basis set)
 
NB est. 0K energy (E-0.5TS)      =  -3091.798607610     eV
 

 ************************************** Forces **************************************
 *                                                                                  *
 *                           Cartesian components (eV/A)                            *
 * -------------------------------------------------------------------------------- *
 *                         x                    y                    z              *
 *                                                                                  *
 * O               1     -0.04264              0.00002             -0.00001         *
 * O               2      0.02132              0.03691             -0.00001         *
 * O               3      0.02130             -0.03691             -0.00000         *
 * O               4     -0.02132             -0.03691              0.00001         *
 * O               5     -0.02130              0.03690             -0.00000         *
 * O               6      0.04264             -0.00001              0.00002         *
 * Al              1     -0.00000              0.00002              0.07525         *
 * Al              2     -0.00001             -0.00001              0.07525         *
 * Al              3      0.00000             -0.00002             -0.07525         *
 * Al              4      0.00001              0.00002             -0.07525         *
 *                                                                                  *
 ************************************************************************************

 ***************** Stress Tensor *****************
 *                                               *
 *          Cartesian components (GPa)           *
 * --------------------------------------------- *
 *             x             y             z     *
 *                                               *
 *  x     -0.657375      0.000036      0.000149  *
 *  y      0.000036     -0.657307     -0.000069  *
 *  z      0.000149     -0.000069     -0.128815  *
 *                                               *
 *  Pressure:    0.4812                          *
 *                                               *
 *************************************************
  
 +------------+-------------+-------------+-----------------+ <-- min LBFGS
 |    Step    |   lambda    |   F.delta'  |    enthalpy     | <-- min LBFGS
 +------------+-------------+-------------+-----------------+ <-- min LBFGS
 |  previous  |    0.000000 |    0.006475 |    -3091.792016 | <-- min LBFGS
 | trial step |    1.000000 |    0.006749 |    -3091.792007 | <-- min LBFGS
 |  line step |  -23.619998 |    0.036604 |    -3091.794287 | <-- min LBFGS
 +------------+-------------+-------------+-----------------+ <-- min LBFGS
  

--------------------------------------------------------------------------------
 LBFGS: improving iteration         3 with quad minimization (lambda=  5.801718)
--------------------------------------------------------------------------------

                           -------------------------------
                                      Unit Cell
                           -------------------------------
        Real Lattice(A)              Reciprocal Lattice(1/A)
     2.3767882     1.3722394     4.3215764        1.321780542   0.763130310   0.484636909
    -2.3767887     1.3722395     4.3215766       -1.321780465   0.763130259   0.484636779
    -0.0000002    -2.7444790     4.3215762       -0.000000006  -1.526260667   0.484636821

                       Lattice parameters(A)       Cell Angles
                    a =      5.119393          alpha =   55.326173
                    b =      5.119394          beta  =   55.326174
                    c =      5.119393          gamma =   55.326172

                Current cell volume =            84.569524 A**3
                            density =             2.411301 amu/A**3
                                    =             4.004059 g/cm^3

                           -------------------------------
                                     Cell Contents
                           -------------------------------

            xxxxxxxxxxxxxxxxxxxxxxxxxxxxxxxxxxxxxxxxxxxxxxxxxxxxxxxxxxxxxxxxx
            x  Element         Atom        Fractional coordinates of atoms  x
            x                 Number           u          v          w      x
            x---------------------------------------------------------------x
            x  O                 1         0.556115   0.943885   0.250000   x
            x  O                 2         0.943885   0.250000   0.556115   x
            x  O                 3         0.250000   0.556115   0.943885   x
            x  O                 4         0.056115   0.750000   0.443885   x
            x  O                 5         0.750000   0.443885   0.056115   x
            x  O                 6         0.443885   0.056115   0.750000   x
            x  Al                1         0.147993   0.147993   0.147993   x
            x  Al                2         0.647993   0.647993   0.647993   x
            x  Al                3         0.852007   0.852007   0.852007   x
            x  Al                4         0.352007   0.352007   0.352007   x
            xxxxxxxxxxxxxxxxxxxxxxxxxxxxxxxxxxxxxxxxxxxxxxxxxxxxxxxxxxxxxxxxx


------------------------------------------------------------------------ <-- SCF
SCF loop      Energy           Fermi           Energy gain       Timer   <-- SCF
                               energy          per atom          (sec)   <-- SCF
------------------------------------------------------------------------ <-- SCF
Initial  -3.09172153E+003  0.00000000E+000                       176.99  <-- SCF
      1  -3.09181197E+003  5.46306235E+000   9.04352318E-003     179.02  <-- SCF
      2  -3.09181323E+003  5.46302271E+000   1.26317190E-004     181.54  <-- SCF
      3  -3.09179835E+003  5.55507399E+000  -1.48810596E-003     183.93  <-- SCF
      4  -3.09179668E+003  5.51064158E+000  -1.66499882E-004     186.42  <-- SCF
      5  -3.09179653E+003  5.52017609E+000  -1.48917318E-005     188.81  <-- SCF
      6  -3.09179653E+003  5.52245182E+000  -3.07824312E-007     190.43  <-- SCF
      7  -3.09179653E+003  5.52196875E+000   4.58321082E-008     191.85  <-- SCF
------------------------------------------------------------------------ <-- SCF
 
Final energy, E             =  -3091.796531763     eV
Final free energy (E-TS)    =  -3091.796531763     eV
(energies not corrected for finite basis set)
 
NB est. 0K energy (E-0.5TS)      =  -3091.796531763     eV
 

 ************************************** Forces **************************************
 *                                                                                  *
 *                           Cartesian components (eV/A)                            *
 * -------------------------------------------------------------------------------- *
 *                         x                    y                    z              *
 *                                                                                  *
 * O               1     -0.00366             -0.00000              0.00000         *
 * O               2      0.00183              0.00316              0.00000         *
 * O               3      0.00183             -0.00318              0.00000         *
 * O               4     -0.00183             -0.00317             -0.00000         *
 * O               5     -0.00184              0.00318             -0.00000         *
 * O               6      0.00366              0.00001              0.00000         *
 * Al              1      0.00000             -0.00000              0.00280         *
 * Al              2      0.00000              0.00000              0.00280         *
 * Al              3     -0.00000              0.00000             -0.00280         *
 * Al              4     -0.00000             -0.00000             -0.00280         *
 *                                                                                  *
 ************************************************************************************

 ***************** Stress Tensor *****************
 *                                               *
 *          Cartesian components (GPa)           *
 * --------------------------------------------- *
 *             x             y             z     *
 *                                               *
 *  x      0.104215     -0.000017     -0.000024  *
 *  y     -0.000017      0.104210      0.000003  *
 *  z     -0.000024      0.000003     -0.014416  *
 *                                               *
 *  Pressure:   -0.0647                          *
 *                                               *
 *************************************************
  
 +------------+-------------+-------------+-----------------+ <-- min LBFGS
 |    Step    |   lambda    |   F.delta'  |    enthalpy     | <-- min LBFGS
 +------------+-------------+-------------+-----------------+ <-- min LBFGS
 |  previous  |    0.000000 |    0.006475 |    -3091.792016 | <-- min LBFGS
 | trial step |    1.000000 |    0.006749 |    -3091.792007 | <-- min LBFGS
 |  line step |  -23.619998 |    0.036604 |    -3091.794287 | <-- min LBFGS
 |  quad step |    5.801718 |   -0.000809 |    -3091.791293 | <-- min LBFGS
 +------------+-------------+-------------+-----------------+ <-- min LBFGS
  
 LBFGS: finished iteration     3 with enthalpy= -3.09179129E+003 eV
  
 +-----------+-----------------+-----------------+------------+-----+ <-- LBFGS
 | Parameter |      value      |    tolerance    |    units   | OK? | <-- LBFGS
 +-----------+-----------------+-----------------+------------+-----+ <-- LBFGS
 |  dE/ion   |   7.231241E-005 |   1.000000E-005 |         eV | No  | <-- LBFGS
 |  |F|max   |   3.670609E-003 |   1.000000E-002 |       eV/A | Yes | <-- LBFGS
 |  |dR|max  |   6.401539E-004 |   1.000000E-003 |          A | Yes | <-- LBFGS
 |   Smax    |   1.042148E-001 |   1.000000E-001 |        GPa | No  | <-- LBFGS
 +-----------+-----------------+-----------------+------------+-----+ <-- LBFGS
  

================================================================================
 Starting LBFGS iteration          4 ...
================================================================================
  
 +------------+-------------+-------------+-----------------+ <-- min LBFGS
 |    Step    |   lambda    |   F.delta'  |    enthalpy     | <-- min LBFGS
 +------------+-------------+-------------+-----------------+ <-- min LBFGS
 |  previous  |    0.000000 |    0.002760 |    -3091.791293 | <-- min LBFGS
 +------------+-------------+-------------+-----------------+ <-- min LBFGS
  

--------------------------------------------------------------------------------
 LBFGS: starting iteration         4 with trial guess (lambda=  1.000000)
--------------------------------------------------------------------------------

                           -------------------------------
                                      Unit Cell
                           -------------------------------
        Real Lattice(A)              Reciprocal Lattice(1/A)
     2.3765745     1.3721160     4.3212403        1.321899419   0.763198938   0.484674590
    -2.3765749     1.3721161     4.3212405       -1.321899362   0.763198909   0.484674481
    -0.0000001    -2.7442322     4.3212401        0.000000003  -1.526397944   0.484674513

                       Lattice parameters(A)       Cell Angles
                    a =      5.118977          alpha =   55.325652
                    b =      5.118977          beta  =   55.325653
                    c =      5.118977          gamma =   55.325651

                Current cell volume =            84.547737 A**3
                            density =             2.411922 amu/A**3
                                    =             4.005091 g/cm^3

                           -------------------------------
                                     Cell Contents
                           -------------------------------

            xxxxxxxxxxxxxxxxxxxxxxxxxxxxxxxxxxxxxxxxxxxxxxxxxxxxxxxxxxxxxxxxx
            x  Element         Atom        Fractional coordinates of atoms  x
            x                 Number           u          v          w      x
            x---------------------------------------------------------------x
            x  O                 1         0.556101   0.943899   0.250000   x
            x  O                 2         0.943899   0.250000   0.556101   x
            x  O                 3         0.250000   0.556101   0.943899   x
            x  O                 4         0.056101   0.750000   0.443899   x
            x  O                 5         0.750000   0.443899   0.056101   x
            x  O                 6         0.443899   0.056101   0.750000   x
            x  Al                1         0.148001   0.148001   0.148001   x
            x  Al                2         0.648001   0.648001   0.648001   x
[...]
 +-----------+-----------------+-----------------+------------+-----+ <-- LBFGS
 |  dE/ion   |   1.361734E-005 |   1.000000E-005 |         eV | No  | <-- LBFGS
 |  |F|max   |   9.733631E-003 |   1.000000E-002 |       eV/A | Yes | <-- LBFGS
 |  |dR|max  |   1.101819E-004 |   1.000000E-003 |          A | Yes | <-- LBFGS
 |   Smax    |   5.380720E-002 |   1.000000E-001 |        GPa | Yes | <-- LBFGS
 +-----------+-----------------+-----------------+------------+-----+ <-- LBFGS
  

================================================================================
 Starting LBFGS iteration          8 ...
================================================================================
  
 +------------+-------------+-------------+-----------------+ <-- min LBFGS
 |    Step    |   lambda    |   F.delta'  |    enthalpy     | <-- min LBFGS
 +------------+-------------+-------------+-----------------+ <-- min LBFGS
 |  previous  |    0.000000 |    0.003637 |    -3091.791655 | <-- min LBFGS
 +------------+-------------+-------------+-----------------+ <-- min LBFGS
  

--------------------------------------------------------------------------------
 LBFGS: starting iteration         8 with trial guess (lambda=  1.000000)
--------------------------------------------------------------------------------

                           -------------------------------
                                      Unit Cell
                           -------------------------------
        Real Lattice(A)              Reciprocal Lattice(1/A)
     2.3764370     1.3720365     4.3219695        1.321976023   0.763243147   0.484592779
    -2.3764368     1.3720363     4.3219695       -1.321976080   0.763243240   0.484592787
    -0.0000001    -2.7440731     4.3219692        0.000000053  -1.526486466   0.484592731

                       Lattice parameters(A)       Cell Angles
                    a =      5.119507          alpha =   55.315947
                    b =      5.119507          beta  =   55.315950
                    c =      5.119507          gamma =   55.315948

                Current cell volume =            84.552195 A**3
                            density =             2.411795 amu/A**3
                                    =             4.004880 g/cm^3

                           -------------------------------
                                     Cell Contents
                           -------------------------------

            xxxxxxxxxxxxxxxxxxxxxxxxxxxxxxxxxxxxxxxxxxxxxxxxxxxxxxxxxxxxxxxxx
            x  Element         Atom        Fractional coordinates of atoms  x
            x                 Number           u          v          w      x
            x---------------------------------------------------------------x
            x  O                 1         0.556081   0.943919   0.250000   x
            x  O                 2         0.943919   0.250000   0.556081   x
            x  O                 3         0.250000   0.556081   0.943919   x
            x  O                 4         0.056081   0.750000   0.443919   x
            x  O                 5         0.750000   0.443919   0.056081   x
            x  O                 6         0.443919   0.056081   0.750000   x
            x  Al                1         0.147999   0.147999   0.147999   x
            x  Al                2         0.647999   0.647999   0.647998   x
            x  Al                3         0.852001   0.852001   0.852001   x
            x  Al                4         0.352001   0.352001   0.352001   x
            xxxxxxxxxxxxxxxxxxxxxxxxxxxxxxxxxxxxxxxxxxxxxxxxxxxxxxxxxxxxxxxxx


------------------------------------------------------------------------ <-- SCF
SCF loop      Energy           Fermi           Energy gain       Timer   <-- SCF
                               energy          per atom          (sec)   <-- SCF
------------------------------------------------------------------------ <-- SCF
Initial  -3.09179784E+003  0.00000000E+000                       278.24  <-- SCF
      1  -3.09179791E+003  5.52329662E+000   7.35515545E-006     279.92  <-- SCF
      2  -3.09179791E+003  5.52329657E+000   1.53864360E-007     281.28  <-- SCF
      3  -3.09179789E+003  5.52131594E+000  -2.03376591E-006     282.65  <-- SCF
      4  -3.09179789E+003  5.52242956E+000  -6.15989071E-009     284.02  <-- SCF
------------------------------------------------------------------------ <-- SCF
 
Final energy, E             =  -3091.797890580     eV
Final free energy (E-TS)    =  -3091.797890580     eV
(energies not corrected for finite basis set)
 
NB est. 0K energy (E-0.5TS)      =  -3091.797890580     eV
 

 ************************************** Forces **************************************
 *                                                                                  *
 *                           Cartesian components (eV/A)                            *
 * -------------------------------------------------------------------------------- *
 *                         x                    y                    z              *
 *                                                                                  *
 * O               1     -0.00692              0.00000              0.00000         *
 * O               2      0.00345              0.00598             -0.00000         *
 * O               3      0.00346             -0.00599             -0.00001         *
 * O               4     -0.00344             -0.00597              0.00000         *
 * O               5     -0.00345              0.00598              0.00001         *
 * O               6      0.00690             -0.00000             -0.00000         *
 * Al              1      0.00000              0.00000              0.00291         *
 * Al              2      0.00000             -0.00000              0.00291         *
 * Al              3     -0.00000             -0.00000             -0.00291         *
 * Al              4      0.00000              0.00000             -0.00291         *
 *                                                                                  *
 ************************************************************************************

 ***************** Stress Tensor *****************
 *                                               *
 *          Cartesian components (GPa)           *
 * --------------------------------------------- *
 *             x             y             z     *
 *                                               *
 *  x      0.008964      0.000016     -0.000008  *
 *  y      0.000016      0.008963      0.000014  *
 *  z     -0.000008      0.000014      0.004237  *
 *                                               *
 *  Pressure:   -0.0074                          *
 *                                               *
 *************************************************
  
 +------------+-------------+-------------+-----------------+ <-- min LBFGS
 |    Step    |   lambda    |   F.delta'  |    enthalpy     | <-- min LBFGS
 +------------+-------------+-------------+-----------------+ <-- min LBFGS
 |  previous  |    0.000000 |    0.003637 |    -3091.791655 | <-- min LBFGS
 | trial step |    1.000000 |    0.002067 |    -3091.791654 | <-- min LBFGS
 +------------+-------------+-------------+-----------------+ <-- min LBFGS
  
 LBFGS: finished iteration     8 with enthalpy= -3.09179165E+003 eV
  
 +-----------+-----------------+-----------------+------------+-----+ <-- LBFGS
 | Parameter |      value      |    tolerance    |    units   | OK? | <-- LBFGS
 +-----------+-----------------+-----------------+------------+-----+ <-- LBFGS
 |  dE/ion   |   8.326554E-008 |   1.000000E-005 |         eV | Yes | <-- LBFGS
 |  |F|max   |   6.923466E-003 |   1.000000E-002 |       eV/A | Yes | <-- LBFGS
 |  |dR|max  |   7.662644E-005 |   1.000000E-003 |          A | Yes | <-- LBFGS
 |   Smax    |   8.964387E-003 |   1.000000E-001 |        GPa | Yes | <-- LBFGS
 +-----------+-----------------+-----------------+------------+-----+ <-- LBFGS
  
 LBFGS: Geometry optimization completed successfully.

================================================================================
 LBFGS: Final Configuration:
================================================================================

                           -------------------------------
                                      Unit Cell
                           -------------------------------
        Real Lattice(A)              Reciprocal Lattice(1/A)
     2.3764370     1.3720365     4.3219695        1.321976023   0.763243147   0.484592779
    -2.3764368     1.3720363     4.3219695       -1.321976080   0.763243240   0.484592787
    -0.0000001    -2.7440731     4.3219692        0.000000053  -1.526486466   0.484592731

                       Lattice parameters(A)       Cell Angles
                    a =      5.119507          alpha =   55.315947
                    b =      5.119507          beta  =   55.315950
                    c =      5.119507          gamma =   55.315948

                Current cell volume =            84.552195 A**3
                            density =             2.411795 amu/A**3
                                    =             4.004880 g/cm^3

                           -------------------------------
                                     Cell Contents
                           -------------------------------

            xxxxxxxxxxxxxxxxxxxxxxxxxxxxxxxxxxxxxxxxxxxxxxxxxxxxxxxxxxxxxxxxx
            x  Element         Atom        Fractional coordinates of atoms  x
            x                 Number           u          v          w      x
            x---------------------------------------------------------------x
            x  O                 1         0.556081   0.943919   0.250000   x
            x  O                 2         0.943919   0.250000   0.556081   x
            x  O                 3         0.250000   0.556081   0.943919   x
            x  O                 4         0.056081   0.750000   0.443919   x
            x  O                 5         0.750000   0.443919   0.056081   x
            x  O                 6         0.443919   0.056081   0.750000   x
            x  Al                1         0.147999   0.147999   0.147999   x
            x  Al                2         0.647999   0.647999   0.647998   x
            x  Al                3         0.852001   0.852001   0.852001   x
            x  Al                4         0.352001   0.352001   0.352001   x
            xxxxxxxxxxxxxxxxxxxxxxxxxxxxxxxxxxxxxxxxxxxxxxxxxxxxxxxxxxxxxxxxx


 LBFGS: Final Enthalpy     = -3.09179165E+003 eV
 LBFGS: Final <frequency>  =    1301.48836 cm-1
 LBFGS: Final bulk modulus =     740.01468 GPa

 ************************************** Forces **************************************
 *                                                                                  *
 *                           Cartesian components (eV/A)                            *
 * -------------------------------------------------------------------------------- *
 *                         x                    y                    z              *
 *                                                                                  *
 * O               1     -0.00692              0.00000              0.00000         *
 * O               2      0.00345              0.00598             -0.00000         *
 * O               3      0.00346             -0.00599             -0.00001         *
 * O               4     -0.00344             -0.00597              0.00000         *
 * O               5     -0.00345              0.00598              0.00001         *
 * O               6      0.00690             -0.00000             -0.00000         *
 * Al              1      0.00000              0.00000              0.00291         *
 * Al              2      0.00000             -0.00000              0.00291         *
 * Al              3     -0.00000             -0.00000             -0.00291         *
 * Al              4      0.00000              0.00000             -0.00291         *
 *                                                                                  *
 ************************************************************************************

 ***************** Stress Tensor *****************
 *                                               *
 *          Cartesian components (GPa)           *
 * --------------------------------------------- *
 *             x             y             z     *
 *                                               *
 *  x      0.008964      0.000016     -0.000008  *
 *  y      0.000016      0.008963      0.000014  *
 *  z     -0.000008      0.000014      0.004237  *
 *                                               *
 *  Pressure:   -0.0074                          *
 *                                               *
 *************************************************

 Pseudo atomic calculation performed for O 2s2 2p4

 Converged in 24 iterations to a total energy of -431.0830 eV

 Pseudo atomic calculation performed for Al 3s2 3p1

 Converged in 15 iterations to a total energy of -105.5952 eV
Charge spilling parameter for spin component 1 = 0.77%

            Orbital Populations       
     Ion    Atom   Orbital             Charge
  -------------------------------------------
      O     1      S                    1.831
      O     1      Px                   1.723
      O     1      Py                   1.756
      O     1      Pz                   1.745
      O     2      S                    1.831
      O     2      Px                   1.748
      O     2      Py                   1.731
      O     2      Pz                   1.745
      O     3      S                    1.831
      O     3      Px                   1.748
      O     3      Py                   1.731
      O     3      Pz                   1.745
      O     4      S                    1.831
      O     4      Px                   1.748
      O     4      Py                   1.731
      O     4      Pz                   1.746
      O     5      S                    1.831
      O     5      Px                   1.748
      O     5      Py                   1.731
      O     5      Pz                   1.745
      O     6      S                    1.831
      O     6      Px                   1.722
      O     6      Py                   1.756
      O     6      Pz                   1.746
     Al     1      S                    0.513
     Al     1      Px                   0.303
     Al     1      Py                   0.303
     Al     1      Pz                   0.297
     Al     2      S                    0.513
     Al     2      Px                   0.303
     Al     2      Py                   0.303
     Al     2      Pz                   0.297
     Al     3      S                    0.513
     Al     3      Px                   0.303
     Al     3      Py                   0.303
     Al     3      Pz                   0.297
     Al     4      S                    0.513
     Al     4      Px                   0.303
     Al     4      Py                   0.303
     Al     4      Pz                   0.297
  -------------------------------------------
                           Total:      48.000
  -------------------------------------------

     Atomic Populations (Mulliken)
     -----------------------------
Species          Ion     s      p      d      f     Total  Charge (e)
=====================================================================
  O               1     1.83   5.22   0.00   0.00   7.06    -1.06
  O               2     1.83   5.22   0.00   0.00   7.06    -1.06
  O               3     1.83   5.22   0.00   0.00   7.06    -1.06
  O               4     1.83   5.22   0.00   0.00   7.06    -1.06
  O               5     1.83   5.22   0.00   0.00   7.06    -1.06
  O               6     1.83   5.22   0.00   0.00   7.06    -1.06
  Al              1     0.51   0.90   0.00   0.00   1.42     1.58
  Al              2     0.51   0.90   0.00   0.00   1.42     1.58
  Al              3     0.51   0.90   0.00   0.00   1.42     1.58
  Al              4     0.51   0.90   0.00   0.00   1.42     1.58
=====================================================================

                 Bond                   Population      Length (A)
======================================================================
               O 5 -- Al 1                   0.36        1.85336
               O 6 -- Al 4                   0.36        1.85336
               O 1 -- Al 2                   0.36        1.85336
               O 3 -- Al 3                   0.36        1.85336
               O 6 -- Al 1                   0.36        1.85336
               O 5 -- Al 4                   0.36        1.85336
               O 1 -- Al 3                   0.36        1.85336
               O 4 -- Al 4                   0.36        1.85336
               O 2 -- Al 3                   0.36        1.85336
               O 4 -- Al 1                   0.36        1.85336
               O 3 -- Al 2                   0.36        1.85336
               O 2 -- Al 2                   0.36        1.85336
               O 4 -- Al 3                   0.26        1.96608
               O 2 -- Al 1                   0.26        1.96608
               O 2 -- Al 4                   0.26        1.96608
               O 4 -- Al 2                   0.26        1.96608
               O 3 -- Al 1                   0.26        1.96608
               O 1 -- Al 4                   0.26        1.96608
               O 5 -- Al 3                   0.26        1.96608
               O 6 -- Al 2                   0.26        1.96608
               O 5 -- Al 2                   0.26        1.96608
               O 6 -- Al 3                   0.26        1.96608
               O 3 -- Al 4                   0.26        1.96608
               O 1 -- Al 1                   0.26        1.96608
               O 2 -- O 3                   -0.17        2.51973
               O 1 -- O 2                   -0.17        2.51973
               O 4 -- O 5                   -0.17        2.51973
               O 1 -- O 3                   -0.17        2.51973
               O 4 -- O 6                   -0.17        2.51973
               O 5 -- O 6                   -0.17        2.51973
               O 2 -- O 4                   -0.17        2.61468
               O 3 -- O 5                   -0.17        2.61468
               O 1 -- O 6                   -0.17        2.61468
              Al 2 -- Al 3                  -0.52        2.64508
              Al 1 -- Al 4                  -0.52        2.64508
               O 3 -- O 4                   -0.10        2.72063
               O 3 -- O 6                   -0.10        2.72063
               O 2 -- O 5                   -0.10        2.72063
               O 2 -- O 6                   -0.10        2.72063
               O 1 -- O 4                   -0.10        2.72063
               O 1 -- O 5                   -0.10        2.72063
              Al 1 -- Al 3                  -0.65        2.78645
              Al 2 -- Al 4                  -0.65        2.78645
======================================================================


Writing analysis data to al2o3_xc-LDA_c-0600_k-5x5x5_geom.castep_bin

Writing model to al2o3_xc-LDA_c-0600_k-5x5x5_geom.check
 
 A BibTeX formatted list of references used in this run has been written to 
 al2o3_xc-LDA_c-0600_k-5x5x5_geom.bib
 
Initialisation time =      7.02 s
Calculation time    =    285.94 s
Finalisation time   =      0.14 s
Total time          =    293.10 s
Peak Memory Use     = 581156 kB
  
Overall parallel efficiency rating: Excellent (95%)                             
  
Data was distributed by:-
k-point (9-way); efficiency rating: Excellent (96%)                             
  
Parallel notes:
1) Calculation only took 293.0 s, so efficiency estimates may be inaccurate.    
