 +-------------------------------------------------+
 |                                                 |
 |      CCC   AA    SSS  TTTTT  EEEEE  PPPP        |
 |     C     A  A  S       T    E      P   P       |
 |     C     AAAA   SS     T    EEE    PPPP        |
 |     C     A  A     S    T    E      P           |
 |      CCC  A  A  SSS     T    EEEEE  P           |
 |                                                 |
 +-------------------------------------------------+
 |                                                 |
 | Welcome to Academic Release CASTEP version 19.11|          
 | Ab Initio Total Energy Program                  |
 |                                                 |
 | Authors:                                        |
 | M. Segall, M. Probert, C. Pickard, P. Hasnip,   |
 | S. Clark, K. Refson, J. R. Yates, M. Payne      |
 |                                                 |
 | Contributors:                                   |
 | P. Lindan, P. Haynes, J. White, V. Milman,      |
 | N. Govind, M. Gibson, P. Tulip, V. Cocula,      |
 | B. Montanari, D. Quigley, M. Glover,            |
 | L. Bernasconi, A. Perlov, M. Plummer,           |
 | E. McNellis, J. Meyer, J. Gale, D. Jochym       |
 | J. Aarons, B. Walker, R. Gillen, D. Jones       |
 | T. Green, I. J. Bush, C. J. Armstrong,          |
 | E. J. Higgins, E. L. Brown, M. S. McFly,        |
 | J. Wilkins, B-C. Shih, P. J. P. Byrne           |
 |                                                 |
 | Copyright (c) 2000 - 2018                       |
 |                                                 |
 |     Distributed under the terms of an           |
 |     Agreement between the United Kingdom        |
 |     Car-Parrinello (UKCP) Consortium,           |
 |     Daresbury Laboratory and Accelrys, Inc.     |
 |                                                 |
 | Please cite                                     |
 |                                                 |
 |     "First principles methods using CASTEP"     |
 |                                                 |
 |         Zeitschrift fuer Kristallographie       |
 |           220(5-6) pp. 567-570 (2005)           |
 |                                                 |
 | S. J. Clark, M. D. Segall, C. J. Pickard,       |
 | P. J. Hasnip, M. J. Probert, K. Refson,         |
 | M. C. Payne                                     |
 |                                                 |
 |       in all publications arising from          |
 |              your use of CASTEP                 |
 |                                                 |
 +-------------------------------------------------+
 |                                                 |
 |              http://www.castep.org              |
 |                                                 |
 +-------------------------------------------------+



 Compiled for linux_x86_64_gfortran7.0 on Fri, 31 Jan 2020 20:20:28 +0100
 from code version e1fe0d666396+ Castep191_branch Thu, 24 Oct 2019 13:54:03 +0100
 Compiler: GNU Fortran 7.4.0; Optimisation: fast
 MATHLIBS: default (LAPACK version 3.7.1)
 FFT Lib : default
 Fundamental constants values: CODATA 2014

 Run started: Wed, 10 Nov 2021 13:15:39 +0100

 Atomic calculation performed for O: 1s2 2s2 2p4

 Converged in 60 iterations to an ae energy of -2027.926 eV

   ============================================================                
   | Pseudopotential Report - Date of generation 10-11-2021   |                
   ------------------------------------------------------------                
   | Element: O Ionic charge:  6.00 Level of theory: LDA      |                
   | Atomic Solver: Koelling-Harmon                           |                
   |                                                          |                
   |               Reference Electronic Structure             |                
   |         Orbital         Occupation         Energy        |                
   |            2s              2.000           -0.873        |                
   |            2p              4.000           -0.338        |                
   |                                                          |                
   |                 Pseudopotential Definition               |                
   |        Beta     l      e      Rc     scheme   norm       |                
   |          1      0   -0.873   1.100     qc      0         |                
   |          2      0    0.250   1.100     qc      0         |                
   |          3      1   -0.338   1.100     qc      0         |                
   |          4      1    0.250   1.100     qc      0         |                
   |         loc     2    0.000   1.100     pn      0         |                
   |                                                          |                
   | Augmentation charge Rinner = 0.769                       |                
   | Partial core correction Rc = 0.769                       |                
   ------------------------------------------------------------                
   | "2|1.1|17|20|23|20:21(qc=8)"                             |                
   ------------------------------------------------------------                
   |      Author: Chris J. Pickard, Cambridge University      |                
   ============================================================                

 Atomic calculation performed for Al: 1s2 2s2 2p6 3s2 3p1

 Converged in 55 iterations to an ae energy of -6578.725 eV

   ============================================================                
   | Pseudopotential Report - Date of generation 10-11-2021   |                
   ------------------------------------------------------------                
   | Element: Al Ionic charge:  3.00 Level of theory: LDA     |                
   | Atomic Solver: Koelling-Harmon                           |                
   |                                                          |                
   |               Reference Electronic Structure             |                
   |         Orbital         Occupation         Energy        |                
   |            3s              2.000           -0.288        |                
   |            3p              1.000           -0.102        |                
   |                                                          |                
   |                 Pseudopotential Definition               |                
   |        Beta     l      e      Rc     scheme   norm       |                
   |          1      0   -0.288   2.192     qc      0         |                
   |          2      0    0.250   2.192     qc      0         |                
   |          3      1   -0.102   2.192     qc      0         |                
   |          4      1    0.250   2.192     qc      0         |                
   |          5      2    0.000   2.000     qc      0         |                
   |          6      2    0.250   2.000     qc      0         |                
   |         loc     3    0.000   2.192     pn      0         |                
   |                                                          |                
   | Augmentation charge Rinner = 1.398                       |                
   | Partial core correction Rc = 1.398                       |                
   ------------------------------------------------------------                
   | "3|2.2|2.2|1.4|4|5|5|30:31:32U2U2"                       |                
   ------------------------------------------------------------                
   |      Author: Chris J. Pickard, Cambridge University      |                
   ============================================================                

 Pseudo atomic calculation performed for O 2s2 2p4

 Converged in 24 iterations to a total energy of -431.0830 eV

 Pseudo atomic calculation performed for Al 3s2 3p1

 Converged in 15 iterations to a total energy of -105.5952 eV
 Calculation parallelised over 9 processes.
 Data is distributed by k-point(9-way)

 ************************************ Title ************************************
 

 ***************************** General Parameters ******************************
  
 output verbosity                               : normal  (1)
 write checkpoint data to                       : al2o3_xc-LDA_c-0600_k-8x8x8_geom.check
 type of calculation                            : geometry optimization
 stress calculation                             : off
 density difference calculation                 : off
 electron localisation func (ELF) calculation   : off
 Hirshfeld analysis                             : off
 unlimited duration calculation
 timing information                             : on
 memory usage estimate                          : on
 write extra output files                       : on
 write final potential to formatted file        : off
 write final density to formatted file          : off
 write structure in CIF formatted file          : on
 write structure in CELL formatted file         : on
 write BibTeX reference list                    : on
 write OTFG pseudopotential files               : on
 write electrostatic potential file             : on
 write bands file                               : on
 checkpoint writing                             : both castep_bin and check files
  
 output         length unit                     : A
 output           mass unit                     : amu
 output           time unit                     : ps
 output         charge unit                     : e
 output           spin unit                     : hbar/2
 output         energy unit                     : eV
 output          force unit                     : eV/A
 output       velocity unit                     : A/ps
 output       pressure unit                     : GPa
 output     inv_length unit                     : 1/A
 output      frequency unit                     : cm-1
 output force constant unit                     : eV/A**2
 output         volume unit                     : A**3
 output   IR intensity unit                     : (D/A)**2/amu
 output         dipole unit                     : D
 output         efield unit                     : eV/A/e
 output        entropy unit                     : J/mol/K
  
 wavefunctions paging                           : none
 random number generator seed                   : randomised (131539231)
 data distribution                              : optimal for this architecture
 optimization strategy                          : maximize speed(+++)

 *********************** Exchange-Correlation Parameters ***********************
  
 using functional                               : Local Density Approximation
 relativistic treatment                         : Koelling-Harmon
 DFT+D: Semi-empirical dispersion correction    : off

 ************************* Pseudopotential Parameters **************************
  
 pseudopotential representation                 : reciprocal space
 <beta|phi> representation                      : reciprocal space
 spin-orbit coupling                            : off

 **************************** Basis Set Parameters *****************************
  
 plane wave basis set cut-off                   :   600.0000   eV
 size of standard grid                          :     1.7500
 size of   fine   gmax                          :    21.9610   1/A
 finite basis set correction                    : automatic
 number of sample energies                      :          3
           sample  spacing                      :     5.0000   eV

 **************************** Electronic Parameters ****************************
  
 number of  electrons                           :  48.00    
 net charge of system                           :  0.000    
 treating system as non-spin-polarized
 number of bands                                :         29

 ********************* Electronic Minimization Parameters **********************
  
 Method: Treating system as metallic with density mixing treatment of electrons,
         and number of  SD  steps               :          1
         and number of  CG  steps               :          4
  
 total energy / atom convergence tol.           : 0.1000E-04   eV
 eigen-energy convergence tolerance             : 0.1000E-05   eV
 max force / atom convergence tol.              : ignored
 convergence tolerance window                   :          3   cycles
 max. number of SCF cycles                      :         30
 number of fixed-spin iterations                :         10
 smearing scheme                                : Gaussian
 smearing width                                 : 0.2000       eV
 Fermi energy convergence tolerance             : 0.2721E-13   eV
 periodic dipole correction                     : NONE

 ************************** Density Mixing Parameters **************************
  
 density-mixing scheme                          : Broyden
 max. length of mixing history                  :         20
 charge density mixing amplitude                : 0.8000    
 cut-off energy for mixing                      :  600.0       eV

 *********************** Population Analysis Parameters ************************
  
 Population analysis with cutoff                :  3.000       A
 Population analysis output                     : summary and pdos components

 ********************** Geometry Optimization Parameters ***********************
  
 optimization method                            : LBFGS
 max. no. of LBFGS updates                      : unbounded
 variable cell method                           : fixed basis quality
 max. number of steps                           :        150
 estimated bulk modulus                         :  500.0       GPa
 estimated <frequency>                          :  1668.       cm-1
 geom line minimiser                            : on
 with line minimiser tolerance                  :     0.4000
 total energy convergence tolerance             : 0.1000E-04   eV/atom
        max ionic |force| tolerance             : 0.1000E-01   eV/A
 max ionic |displacement| tolerance             : 0.1000E-02   A
   max |stress component| tolerance             : 0.1000       GPa
 convergence tolerance window                   :          2   steps
 backup results every                           :          5   steps
 write geom trajectory file                     : on

 *******************************************************************************
  

                           -------------------------------
                                      Unit Cell
                           -------------------------------
        Real Lattice(A)                      Reciprocal Lattice(1/A)
     2.3801000     1.3741510     4.3310000        1.319941454   0.762068577   0.483582396
    -2.3801000     1.3741510     4.3310000       -1.319941454   0.762068577   0.483582396
     0.0000000    -2.7483030     4.3310000       -0.000000000  -1.524137154   0.483582220

                       Lattice parameters(A)       Cell Angles
                    a =      5.129398          alpha =   55.292535
                    b =      5.129398          beta  =   55.292535
                    c =      5.129399          gamma =   55.292537

                       Current cell volume =            84.990269       A**3
                                   density =             2.399364   AMU/A**3
                                           =             3.984237     g/cm^3

                           -------------------------------
                                     Cell Contents
                           -------------------------------
                         Total number of ions in cell =   10
                      Total number of species in cell =    2
                        Max number of any one species =    6

            xxxxxxxxxxxxxxxxxxxxxxxxxxxxxxxxxxxxxxxxxxxxxxxxxxxxxxxxxxxx
            x  Element    Atom        Fractional coordinates of atoms  x
            x            Number           u          v          w      x
            x----------------------------------------------------------x
            x  O            1         0.556260   0.943740   0.250000   x 
            x  O            2         0.943740   0.250000   0.556260   x 
            x  O            3         0.250000   0.556260   0.943740   x 
            x  O            4         0.056260   0.750000   0.443740   x 
            x  O            5         0.750000   0.443740   0.056260   x 
            x  O            6         0.443740   0.056260   0.750000   x 
            x  Al           1         0.147900   0.147900   0.147900   x 
            x  Al           2         0.647900   0.647900   0.647900   x 
            x  Al           3         0.852100   0.852100   0.852100   x 
            x  Al           4         0.352100   0.352100   0.352100   x 
            xxxxxxxxxxxxxxxxxxxxxxxxxxxxxxxxxxxxxxxxxxxxxxxxxxxxxxxxxxxx


                         No user defined ionic velocities

                           -------------------------------
                                   Details of Species
                           -------------------------------

                               Mass of species in AMU
                                    O   15.9994000
                                    Al   26.9815400

                          Electric Quadrupole Moment (Barn)
                                    O   -0.0255800 Isotope 17
                                    Al    0.1466000 Isotope 27

                          Files used for pseudopotentials:
                                    O 2|1.1|17|20|23|20:21(qc=8)
                                    Al 3|2.2|2.2|1.4|4|5|5|30:31:32U2U2

                           -------------------------------
                              k-Points For BZ Sampling
                           -------------------------------
                       MP grid size for SCF calculation is  8  8  8
                            with an offset of   0.000  0.000  0.000
                       Number of kpoints used =           256

                           -------------------------------
                               Symmetry and Constraints
                           -------------------------------

                      Maximum deviation from symmetry =  0.00000         ANG

                      Number of symmetry operations   =           1
                      Number of ionic constraints     =           3
                      Point group of crystal =     1: C1, 1, 1
                      Space group of crystal =   167: R-3c, -R 3 2"c

             Set iprint > 1 for details on symmetry rotations/translations

                         Centre of mass is constrained
             Set iprint > 1 for details of linear ionic constraints

                         Number of cell constraints= 0
                         Cell constraints are:  1 2 3 4 5 6

                         External pressure/stress (GPa)
                          0.00000   0.00000   0.00000
                                    0.00000   0.00000
                                              0.00000
  
+---------------- MEMORY AND SCRATCH DISK ESTIMATES PER PROCESS --------------+
|                                                     Memory          Disk    |
| Baseline code, static data and system overhead      196.0 MB         0.0 MB |
| BLAS internal memory storage                          0.0 MB         0.0 MB |
| Model and support data                              165.5 MB         0.0 MB |
| Electronic energy minimisation requirements          93.4 MB         0.0 MB |
| Force calculation requirements                        6.8 MB         0.0 MB |
|                                               ----------------------------- |
| Approx. total storage required per process          454.9 MB         0.0 MB |
|                                                                             |
| Requirements will fluctuate during execution and may exceed these estimates |
+-----------------------------------------------------------------------------+
Calculating finite basis set correction with  3 cut-off energies.
Calculating total energy with cut-off of  590.000 eV.
------------------------------------------------------------------------ <-- SCF
SCF loop      Energy           Fermi           Energy gain       Timer   <-- SCF
                               energy          per atom          (sec)   <-- SCF
------------------------------------------------------------------------ <-- SCF
Initial  -2.25204977E+003  0.00000000E+000                         9.36  <-- SCF
      1  -2.87459351E+003  1.27613332E+001   6.22543736E+001      19.54  <-- SCF
      2  -3.09336542E+003  8.73610644E+000   2.18771910E+001      28.92  <-- SCF
      3  -3.09922077E+003  8.74338576E+000   5.85535364E-001      37.89  <-- SCF
      4  -3.09471850E+003  1.02762331E+001  -4.50227064E-001      47.45  <-- SCF
      5  -3.09126308E+003  9.61207745E+000  -3.45542389E-001      56.91  <-- SCF
      6  -3.09131068E+003  9.62974361E+000   4.76034367E-003      68.26  <-- SCF
      7  -3.09130340E+003  9.65834664E+000  -7.28187878E-004      78.50  <-- SCF
      8  -3.09130280E+003  9.67786111E+000  -5.96336739E-005      88.42  <-- SCF
      9  -3.09130257E+003  9.67287487E+000  -2.32595421E-005      97.52  <-- SCF
     10  -3.09130257E+003  9.67243536E+000  -3.16466565E-007     104.30  <-- SCF
     11  -3.09130257E+003  9.67236596E+000   2.36675225E-007     110.93  <-- SCF
------------------------------------------------------------------------ <-- SCF
 
Final energy, E             =  -3091.302569469     eV
Final free energy (E-TS)    =  -3091.302569469     eV
(energies not corrected for finite basis set)
 
NB est. 0K energy (E-0.5TS)      =  -3091.302569469     eV
 
Calculating total energy with cut-off of  595.000 eV.
------------------------------------------------------------------------ <-- SCF
SCF loop      Energy           Fermi           Energy gain       Timer   <-- SCF
                               energy          per atom          (sec)   <-- SCF
------------------------------------------------------------------------ <-- SCF
Initial  -3.09130257E+003  0.00000000E+000                       112.60  <-- SCF
      1  -3.09154999E+003  9.67245963E+000   2.47423030E-002     120.18  <-- SCF
      2  -3.09155010E+003  9.67245960E+000   1.09021646E-005     128.88  <-- SCF
      3  -3.09155009E+003  9.67736062E+000  -4.52202374E-007     137.50  <-- SCF
      4  -3.09155005E+003  9.67499297E+000  -4.20456232E-006     143.64  <-- SCF
------------------------------------------------------------------------ <-- SCF
 
Final energy, E             =  -3091.550052672     eV
Final free energy (E-TS)    =  -3091.550052672     eV
(energies not corrected for finite basis set)
 
NB est. 0K energy (E-0.5TS)      =  -3091.550052672     eV
 
Calculating total energy with cut-off of  600.000 eV.
------------------------------------------------------------------------ <-- SCF
SCF loop      Energy           Fermi           Energy gain       Timer   <-- SCF
                               energy          per atom          (sec)   <-- SCF
------------------------------------------------------------------------ <-- SCF
Initial  -3.09155005E+003  0.00000000E+000                       145.45  <-- SCF
      1  -3.09178405E+003  9.67484516E+000   2.34000782E-002     153.07  <-- SCF
      2  -3.09178415E+003  9.67484515E+000   1.01334301E-005     161.45  <-- SCF
      3  -3.09178415E+003  9.67985110E+000  -6.00762604E-007     170.10  <-- SCF
      4  -3.09178410E+003  9.67747103E+000  -4.37432998E-006     176.03  <-- SCF
------------------------------------------------------------------------ <-- SCF
 
Final energy, E             =  -3091.784104124     eV
Final free energy (E-TS)    =  -3091.784104124     eV
(energies not corrected for finite basis set)
 
NB est. 0K energy (E-0.5TS)      =  -3091.784104124     eV
 
 For future reference: finite basis dEtot/dlog(Ecut) =     -28.880360eV
 Total energy corrected for finite basis set =   -3091.783306 eV
 
+---------------- MEMORY AND SCRATCH DISK ESTIMATES PER PROCESS --------------+
|                                                     Memory          Disk    |
| Model and support data                              175.2 MB         0.0 MB |
| Electronic energy minimisation requirements          93.4 MB         0.0 MB |
| Geometry minimisation requirements                  132.7 MB         0.0 MB |
|                                               ----------------------------- |
| Approx. total storage required per process          401.4 MB         0.0 MB |
|                                                                             |
| Requirements will fluctuate during execution and may exceed these estimates |
+-----------------------------------------------------------------------------+
 

 ************************************** Forces **************************************
 *                                                                                  *
 *                           Cartesian components (eV/A)                            *
 * -------------------------------------------------------------------------------- *
 *                         x                    y                    z              *
 *                                                                                  *
 * O               1     -0.01905              0.00001             -0.00000         *
 * O               2      0.00952              0.01649              0.00000         *
 * O               3      0.00952             -0.01650             -0.00001         *
 * O               4     -0.00952             -0.01648             -0.00001         *
 * O               5     -0.00952              0.01650              0.00000         *
 * O               6      0.01906             -0.00001              0.00001         *
 * Al              1     -0.00000              0.00001              0.02848         *
 * Al              2      0.00000             -0.00000              0.02849         *
 * Al              3     -0.00000             -0.00001             -0.02848         *
 * Al              4     -0.00000              0.00000             -0.02848         *
 *                                                                                  *
 ************************************************************************************

 ***************** Stress Tensor *****************
 *                                               *
 *          Cartesian components (GPa)           *
 * --------------------------------------------- *
 *             x             y             z     *
 *                                               *
 *  x      1.327480     -0.000004     -0.000004  *
 *  y     -0.000004      1.327388     -0.000036  *
 *  z     -0.000004     -0.000036      1.415927  *
 *                                               *
 *  Pressure:   -1.3569                          *
 *                                               *
 *************************************************
 LBFGS: finished iteration     0 with enthalpy= -3.09178331E+003 eV
  
 +-----------+-----------------+-----------------+------------+-----+ <-- LBFGS
 | Parameter |      value      |    tolerance    |    units   | OK? | <-- LBFGS
 +-----------+-----------------+-----------------+------------+-----+ <-- LBFGS
 |  dE/ion   |   0.000000E+000 |   1.000000E-005 |         eV | No  | <-- LBFGS
 |  |F|max   |   2.848560E-002 |   1.000000E-002 |       eV/A | No  | <-- LBFGS
 |  |dR|max  |   0.000000E+000 |   1.000000E-003 |          A | No  | <-- LBFGS
 |   Smax    |   1.415927E+000 |   1.000000E-001 |        GPa | No  | <-- LBFGS
 +-----------+-----------------+-----------------+------------+-----+ <-- LBFGS
  

================================================================================
 Starting LBFGS iteration          1 ...
================================================================================
  
 +------------+-------------+-------------+-----------------+ <-- min LBFGS
 |    Step    |   lambda    |   F.delta'  |    enthalpy     | <-- min LBFGS
 +------------+-------------+-------------+-----------------+ <-- min LBFGS
 |  previous  |    0.000000 |    0.046394 |    -3091.783306 | <-- min LBFGS
 +------------+-------------+-------------+-----------------+ <-- min LBFGS
  

--------------------------------------------------------------------------------
 LBFGS: starting iteration         1 with trial guess (lambda=  1.000000)
--------------------------------------------------------------------------------

                           -------------------------------
                                      Unit Cell
                           -------------------------------
        Real Lattice(A)              Reciprocal Lattice(1/A)
     2.3779937     1.3729351     4.3269118        1.321110615   0.762743534   0.484039283
    -2.3779936     1.3729351     4.3269118       -1.321110622   0.762743540   0.484039291
     0.0000000    -2.7458709     4.3269117        0.000000002  -1.525487108   0.484039165

                       Lattice parameters(A)       Cell Angles
                    a =      5.124643          alpha =   55.295063
                    b =      5.124643          beta  =   55.295063
                    c =      5.124644          gamma =   55.295062

                Current cell volume =            84.759825 A**3
                            density =             2.405887 amu/A**3
                                    =             3.995069 g/cm^3

                           -------------------------------
                                     Cell Contents
                           -------------------------------

            xxxxxxxxxxxxxxxxxxxxxxxxxxxxxxxxxxxxxxxxxxxxxxxxxxxxxxxxxxxxxxxxx
            x  Element         Atom        Fractional coordinates of atoms  x
            x                 Number           u          v          w      x
            x---------------------------------------------------------------x
            x  O                 1         0.556241   0.943759   0.250000   x
            x  O                 2         0.943759   0.250000   0.556241   x
            x  O                 3         0.250000   0.556241   0.943759   x
            x  O                 4         0.056241   0.750000   0.443759   x
            x  O                 5         0.750000   0.443759   0.056241   x
            x  O                 6         0.443759   0.056241   0.750000   x
            x  Al                1         0.147911   0.147911   0.147910   x
            x  Al                2         0.647911   0.647911   0.647910   x
            x  Al                3         0.852090   0.852090   0.852089   x
            x  Al                4         0.352090   0.352090   0.352089   x
            xxxxxxxxxxxxxxxxxxxxxxxxxxxxxxxxxxxxxxxxxxxxxxxxxxxxxxxxxxxxxxxxx


------------------------------------------------------------------------ <-- SCF
SCF loop      Energy           Fermi           Energy gain       Timer   <-- SCF
                               energy          per atom          (sec)   <-- SCF
------------------------------------------------------------------------ <-- SCF
Initial  -3.09178237E+003  0.00000000E+000                       190.73  <-- SCF
      1  -3.09179146E+003  9.75924650E+000   9.09095873E-004     201.48  <-- SCF
      2  -3.09179151E+003  9.75924361E+000   4.56653246E-006     210.09  <-- SCF
      3  -3.09179001E+003  9.72305774E+000  -1.49294397E-004     221.06  <-- SCF
      4  -3.09178775E+003  9.73886634E+000  -2.26071817E-004     230.61  <-- SCF
      5  -3.09178777E+003  9.73899013E+000   2.12282038E-006     236.55  <-- SCF
      6  -3.09178778E+003  9.73895415E+000   2.68329588E-007     242.14  <-- SCF
------------------------------------------------------------------------ <-- SCF
 
Final energy, E             =  -3091.787776558     eV
Final free energy (E-TS)    =  -3091.787776558     eV
(energies not corrected for finite basis set)
 
NB est. 0K energy (E-0.5TS)      =  -3091.787776558     eV
 

 ************************************** Forces **************************************
 *                                                                                  *
 *                           Cartesian components (eV/A)                            *
 * -------------------------------------------------------------------------------- *
 *                         x                    y                    z              *
 *                                                                                  *
 * O               1     -0.01684              0.00001             -0.00001         *
 * O               2      0.00842              0.01459              0.00000         *
 * O               3      0.00842             -0.01459              0.00000         *
 * O               4     -0.00842             -0.01460             -0.00000         *
 * O               5     -0.00842              0.01459             -0.00000         *
 * O               6      0.01685             -0.00001              0.00001         *
 * Al              1     -0.00000              0.00001              0.02706         *
 * Al              2      0.00000             -0.00000              0.02706         *
 * Al              3     -0.00000             -0.00001             -0.02706         *
 * Al              4     -0.00000              0.00000             -0.02706         *
 *                                                                                  *
 ************************************************************************************

 ***************** Stress Tensor *****************
 *                                               *
 *          Cartesian components (GPa)           *
 * --------------------------------------------- *
 *             x             y             z     *
 *                                               *
 *  x      0.682679     -0.000001     -0.000006  *
 *  y     -0.000001      0.682687     -0.000024  *
 *  z     -0.000006     -0.000024      0.782926  *
 *                                               *
 *  Pressure:   -0.7161                          *
 *                                               *
 *************************************************
  
 +------------+-------------+-------------+-----------------+ <-- min LBFGS
 |    Step    |   lambda    |   F.delta'  |    enthalpy     | <-- min LBFGS
 +------------+-------------+-------------+-----------------+ <-- min LBFGS
 |  previous  |    0.000000 |    0.046394 |    -3091.783306 | <-- min LBFGS
 | trial step |    1.000000 |    0.024706 |    -3091.788789 | <-- min LBFGS
 +------------+-------------+-------------+-----------------+ <-- min LBFGS
  

--------------------------------------------------------------------------------
 LBFGS: improving iteration         1 with line minimization (lambda=  2.139216)
--------------------------------------------------------------------------------

                           -------------------------------
                                      Unit Cell
                           -------------------------------
        Real Lattice(A)              Reciprocal Lattice(1/A)
     2.3755941     1.3715499     4.3222544        1.322445069   0.763513913   0.484560830
    -2.3755940     1.3715499     4.3222544       -1.322445082   0.763513926   0.484560846
     0.0000000    -2.7431001     4.3222542        0.000000005  -1.527027913   0.484560778

                       Lattice parameters(A)       Cell Angles
                    a =      5.119226          alpha =   55.297948
                    b =      5.119226          beta  =   55.297948
                    c =      5.119226          gamma =   55.297944

                Current cell volume =            84.497808 A**3
                            density =             2.413347 amu/A**3
                                    =             4.007457 g/cm^3

                           -------------------------------
                                     Cell Contents
                           -------------------------------

            xxxxxxxxxxxxxxxxxxxxxxxxxxxxxxxxxxxxxxxxxxxxxxxxxxxxxxxxxxxxxxxxx
            x  Element         Atom        Fractional coordinates of atoms  x
            x                 Number           u          v          w      x
            x---------------------------------------------------------------x
            x  O                 1         0.556219   0.943781   0.250000   x
            x  O                 2         0.943781   0.250000   0.556219   x
            x  O                 3         0.250000   0.556219   0.943781   x
            x  O                 4         0.056219   0.750000   0.443781   x
            x  O                 5         0.750000   0.443781   0.056219   x
            x  O                 6         0.443781   0.056219   0.750000   x
            x  Al                1         0.147923   0.147923   0.147922   x
            x  Al                2         0.647923   0.647923   0.647922   x
            x  Al                3         0.852078   0.852078   0.852077   x
            x  Al                4         0.352078   0.352078   0.352077   x
            xxxxxxxxxxxxxxxxxxxxxxxxxxxxxxxxxxxxxxxxxxxxxxxxxxxxxxxxxxxxxxxxx


------------------------------------------------------------------------ <-- SCF
SCF loop      Energy           Fermi           Energy gain       Timer   <-- SCF
                               energy          per atom          (sec)   <-- SCF
------------------------------------------------------------------------ <-- SCF
Initial  -3.09178697E+003  0.00000000E+000                       256.56  <-- SCF
      1  -3.09179906E+003  9.83274476E+000   1.20922602E-003     267.57  <-- SCF
      2  -3.09179911E+003  9.83273982E+000   5.13491676E-006     276.31  <-- SCF
      3  -3.09179703E+003  9.78994802E+000  -2.07722314E-004     287.26  <-- SCF
      4  -3.09179389E+003  9.80863260E+000  -3.14548527E-004     296.73  <-- SCF
      5  -3.09179392E+003  9.80881097E+000   3.05096976E-006     303.38  <-- SCF
      6  -3.09179392E+003  9.80875637E+000   2.93592004E-007     308.99  <-- SCF
------------------------------------------------------------------------ <-- SCF
 
Final energy, E             =  -3091.793920992     eV
Final free energy (E-TS)    =  -3091.793920992     eV
(energies not corrected for finite basis set)
 
NB est. 0K energy (E-0.5TS)      =  -3091.793920992     eV
 

 ************************************** Forces **************************************
 *                                                                                  *
 *                           Cartesian components (eV/A)                            *
 * -------------------------------------------------------------------------------- *
 *                         x                    y                    z              *
 *                                                                                  *
 * O               1     -0.01405              0.00001              0.00000         *
 * O               2      0.00702              0.01217             -0.00000         *
 * O               3      0.00702             -0.01217             -0.00000         *
 * O               4     -0.00702             -0.01217              0.00001         *
 * O               5     -0.00702              0.01217              0.00000         *
 * O               6      0.01405             -0.00001             -0.00001         *
 * Al              1     -0.00000              0.00001              0.02538         *
 * Al              2      0.00000             -0.00000              0.02538         *
 * Al              3      0.00000             -0.00000             -0.02538         *
 * Al              4     -0.00000              0.00000             -0.02538         *
 *                                                                                  *
 ************************************************************************************

 ***************** Stress Tensor *****************
 *                                               *
 *          Cartesian components (GPa)           *
 * --------------------------------------------- *
 *             x             y             z     *
 *                                               *
 *  x     -0.081641      0.000011     -0.000022  *
 *  y      0.000011     -0.081578     -0.000020  *
 *  z     -0.000022     -0.000020      0.065994  *
 *                                               *
 *  Pressure:    0.0324                          *
 *                                               *
 *************************************************
  
 +------------+-------------+-------------+-----------------+ <-- min LBFGS
 |    Step    |   lambda    |   F.delta'  |    enthalpy     | <-- min LBFGS
 +------------+-------------+-------------+-----------------+ <-- min LBFGS
 |  previous  |    0.000000 |    0.046394 |    -3091.783306 | <-- min LBFGS
 | trial step |    1.000000 |    0.024706 |    -3091.788789 | <-- min LBFGS
 |  line step |    2.139216 |   -0.000512 |    -3091.793642 | <-- min LBFGS
 +------------+-------------+-------------+-----------------+ <-- min LBFGS
  
 LBFGS: finished iteration     1 with enthalpy= -3.09179364E+003 eV
  
 +-----------+-----------------+-----------------+------------+-----+ <-- LBFGS
 | Parameter |      value      |    tolerance    |    units   | OK? | <-- LBFGS
 +-----------+-----------------+-----------------+------------+-----+ <-- LBFGS
 |  dE/ion   |   1.033534E-003 |   1.000000E-005 |         eV | No  | <-- LBFGS
 |  |F|max   |   2.538279E-002 |   1.000000E-002 |       eV/A | No  | <-- LBFGS
 |  |dR|max  |   2.915402E-004 |   1.000000E-003 |          A | Yes | <-- LBFGS
 |   Smax    |   8.164136E-002 |   1.000000E-001 |        GPa | Yes | <-- LBFGS
 +-----------+-----------------+-----------------+------------+-----+ <-- LBFGS
  

================================================================================
 Starting LBFGS iteration          2 ...
================================================================================
  
 +------------+-------------+-------------+-----------------+ <-- min LBFGS
 |    Step    |   lambda    |   F.delta'  |    enthalpy     | <-- min LBFGS
 +------------+-------------+-------------+-----------------+ <-- min LBFGS
 |  previous  |    0.000000 |    0.008358 |    -3091.793642 | <-- min LBFGS
 +------------+-------------+-------------+-----------------+ <-- min LBFGS
  

--------------------------------------------------------------------------------
 LBFGS: starting iteration         2 with trial guess (lambda=  1.000000)
--------------------------------------------------------------------------------

                           -------------------------------
                                      Unit Cell
                           -------------------------------
        Real Lattice(A)              Reciprocal Lattice(1/A)
     2.3757231     1.3716243     4.3220693        1.322373280   0.763472502   0.484581560
    -2.3757229     1.3716244     4.3220692       -1.322373296   0.763472495   0.484581613
     0.0000001    -2.7432489     4.3220690       -0.000000013  -1.526945090   0.484581557

                       Lattice parameters(A)       Cell Angles
                    a =      5.119150          alpha =   55.302104
                    b =      5.119150          beta  =   55.302103
                    c =      5.119150          gamma =   55.302100

                Current cell volume =            84.503359 A**3
                            density =             2.413189 amu/A**3
                                    =             4.007194 g/cm^3

                           -------------------------------
                                     Cell Contents
                           -------------------------------

            xxxxxxxxxxxxxxxxxxxxxxxxxxxxxxxxxxxxxxxxxxxxxxxxxxxxxxxxxxxxxxxxx
            x  Element         Atom        Fractional coordinates of atoms  x
            x                 Number           u          v          w      x
            x---------------------------------------------------------------x
            x  O                 1         0.556205   0.943795   0.250000   x
            x  O                 2         0.943795   0.250000   0.556205   x
            x  O                 3         0.250000   0.556205   0.943795   x
            x  O                 4         0.056205   0.750000   0.443795   x
            x  O                 5         0.750000   0.443795   0.056205   x
            x  O                 6         0.443795   0.056205   0.750000   x
            x  Al                1         0.147932   0.147932   0.147932   x
            x  Al                2         0.647932   0.647932   0.647932   x
            x  Al                3         0.852068   0.852068   0.852068   x
            x  Al                4         0.352068   0.352068   0.352068   x
            xxxxxxxxxxxxxxxxxxxxxxxxxxxxxxxxxxxxxxxxxxxxxxxxxxxxxxxxxxxxxxxxx


------------------------------------------------------------------------ <-- SCF
SCF loop      Energy           Fermi           Energy gain       Timer   <-- SCF
                               energy          per atom          (sec)   <-- SCF
------------------------------------------------------------------------ <-- SCF
Initial  -3.09179261E+003  0.00000000E+000                       322.27  <-- SCF
      1  -3.09179400E+003  9.80651470E+000   1.38684908E-004     329.69  <-- SCF
      2  -3.09179400E+003  9.80651443E+000   2.33331687E-007     335.18  <-- SCF
      3  -3.09179398E+003  9.80729483E+000  -2.29242335E-006     340.63  <-- SCF
      4  -3.09179398E+003  9.80680551E+000  -3.97958058E-008     346.08  <-- SCF
------------------------------------------------------------------------ <-- SCF
 
Final energy, E             =  -3091.793979843     eV
Final free energy (E-TS)    =  -3091.793979843     eV
(energies not corrected for finite basis set)
 
NB est. 0K energy (E-0.5TS)      =  -3091.793979843     eV
 

 ************************************** Forces **************************************
 *                                                                                  *
 *                           Cartesian components (eV/A)                            *
 * -------------------------------------------------------------------------------- *
 *                         x                    y                    z              *
 *                                                                                  *
 * O               1     -0.02372              0.00001              0.00000         *
 * O               2      0.01185              0.02054             -0.00000         *
 * O               3      0.01186             -0.02055              0.00000         *
 * O               4     -0.01185             -0.02054              0.00000         *
 * O               5     -0.01185              0.02055              0.00000         *
 * O               6      0.02372             -0.00001             -0.00000         *
 * Al              1     -0.00000              0.00001              0.02269         *
 * Al              2     -0.00000             -0.00000              0.02269         *
 * Al              3      0.00000             -0.00000             -0.02269         *
 * Al              4     -0.00000              0.00000             -0.02269         *
 *                                                                                  *
 ************************************************************************************

 ***************** Stress Tensor *****************
 *                                               *
 *          Cartesian components (GPa)           *
 * --------------------------------------------- *
 *             x             y             z     *
 *                                               *
 *  x     -0.049404      0.000002      0.000004  *
 *  y      0.000002     -0.049368      0.000011  *
 *  z      0.000004      0.000011      0.063001  *
 *                                               *
 *  Pressure:    0.0119                          *
 *                                               *
 *************************************************
  
 +------------+-------------+-------------+-----------------+ <-- min LBFGS
 |    Step    |   lambda    |   F.delta'  |    enthalpy     | <-- min LBFGS
 +------------+-------------+-------------+-----------------+ <-- min LBFGS
 |  previous  |    0.000000 |    0.008358 |    -3091.793642 | <-- min LBFGS
 | trial step |    1.000000 |    0.008583 |    -3091.793525 | <-- min LBFGS
 +------------+-------------+-------------+-----------------+ <-- min LBFGS
  

--------------------------------------------------------------------------------
 LBFGS: improving iteration         2 with line minimization (lambda=-37.057692)
--------------------------------------------------------------------------------

                           -------------------------------
                                      Unit Cell
                           -------------------------------
        Real Lattice(A)              Reciprocal Lattice(1/A)
     2.3708131     1.3687914     4.3291140        1.325110904   0.765051692   0.483793885
    -2.3708168     1.3687900     4.3291165       -1.325110827   0.765052432   0.483792511
    -0.0000030    -2.7375880     4.3291170        0.000000678  -1.530103490   0.483792023

                       Lattice parameters(A)       Cell Angles
                    a =      5.122067          alpha =   55.144001
                    b =      5.122071          beta  =   55.144050
                    c =      5.122074          gamma =   55.143982

                Current cell volume =            84.291904 A**3
                            density =             2.419243 amu/A**3
                                    =             4.017247 g/cm^3

                           -------------------------------
                                     Cell Contents
                           -------------------------------

            xxxxxxxxxxxxxxxxxxxxxxxxxxxxxxxxxxxxxxxxxxxxxxxxxxxxxxxxxxxxxxxxx
            x  Element         Atom        Fractional coordinates of atoms  x
            x                 Number           u          v          w      x
            x---------------------------------------------------------------x
            x  O                 1         0.556736   0.943264   0.250000   x
            x  O                 2         0.943264   0.250000   0.556736   x
            x  O                 3         0.250000   0.556736   0.943264   x
            x  O                 4         0.056736   0.750000   0.443264   x
            x  O                 5         0.750000   0.443264   0.056736   x
            x  O                 6         0.443264   0.056737   0.750000   x
            x  Al                1         0.147580   0.147580   0.147580   x
            x  Al                2         0.647580   0.647580   0.647580   x
            x  Al                3         0.852420   0.852420   0.852419   x
            x  Al                4         0.352420   0.352420   0.352420   x
            xxxxxxxxxxxxxxxxxxxxxxxxxxxxxxxxxxxxxxxxxxxxxxxxxxxxxxxxxxxxxxxxx


------------------------------------------------------------------------ <-- SCF
SCF loop      Energy           Fermi           Energy gain       Timer   <-- SCF
                               energy          per atom          (sec)   <-- SCF
------------------------------------------------------------------------ <-- SCF
Initial  -3.09170079E+003  0.00000000E+000                       360.59  <-- SCF
      1  -3.09182621E+003  9.87402759E+000   1.25415320E-002     368.79  <-- SCF
      2  -3.09182852E+003  9.87401535E+000   2.31182279E-004     378.68  <-- SCF
      3  -3.09179764E+003  9.85296691E+000  -3.08816308E-003     387.91  <-- SCF
      4  -3.09179627E+003  9.87147039E+000  -1.36213776E-004     398.03  <-- SCF
      5  -3.09179598E+003  9.86585990E+000  -2.97037293E-005     407.79  <-- SCF
      6  -3.09179598E+003  9.86541509E+000  -9.03671571E-008     414.57  <-- SCF
      7  -3.09179598E+003  9.86545563E+000   5.80400568E-008     420.44  <-- SCF
------------------------------------------------------------------------ <-- SCF
 
Final energy, E             =  -3091.795976420     eV
Final free energy (E-TS)    =  -3091.795976420     eV
(energies not corrected for finite basis set)
 
NB est. 0K energy (E-0.5TS)      =  -3091.795976420     eV
 

 ************************************** Forces **************************************
 *                                                                                  *
 *                           Cartesian components (eV/A)                            *
 * -------------------------------------------------------------------------------- *
 *                         x                    y                    z              *
 *                                                                                  *
 * O               1     -0.06922              0.00003             -0.00001         *
 * O               2      0.03459              0.05993              0.00000         *
 * O               3      0.03459             -0.05995             -0.00001         *
 * O               4     -0.03459             -0.05995              0.00001         *
 * O               5     -0.03458              0.05996              0.00001         *
 * O               6      0.06921             -0.00003              0.00000         *
 * Al              1     -0.00000              0.00003              0.13801         *
 * Al              2      0.00001             -0.00003              0.13803         *
 * Al              3     -0.00000             -0.00002             -0.13802         *
 * Al              4     -0.00001              0.00003             -0.13802         *
 *                                                                                  *
 ************************************************************************************

 ***************** Stress Tensor *****************
 *                                               *
 *          Cartesian components (GPa)           *
 * --------------------------------------------- *
 *             x             y             z     *
 *                                               *
 *  x     -1.332416      0.000155     -0.000255  *
 *  y      0.000155     -1.331525     -0.000267  *
 *  z     -0.000255     -0.000267      0.640688  *
 *                                               *
 *  Pressure:    0.6744                          *
 *                                               *
 *************************************************
  
 +------------+-------------+-------------+-----------------+ <-- min LBFGS
 |    Step    |   lambda    |   F.delta'  |    enthalpy     | <-- min LBFGS
 +------------+-------------+-------------+-----------------+ <-- min LBFGS
 |  previous  |    0.000000 |    0.008358 |    -3091.793642 | <-- min LBFGS
 | trial step |    1.000000 |    0.008583 |    -3091.793525 | <-- min LBFGS
 |  line step |  -37.057692 |    0.064426 |    -3091.794383 | <-- min LBFGS
 +------------+-------------+-------------+-----------------+ <-- min LBFGS
  

--------------------------------------------------------------------------------
 LBFGS: improving iteration         2 with quad minimization (lambda=  6.176513)
--------------------------------------------------------------------------------

                           -------------------------------
                                      Unit Cell
                           -------------------------------
        Real Lattice(A)              Reciprocal Lattice(1/A)
     2.3763909     1.3720097     4.3211111        1.322001789   0.763258207   0.484688896
    -2.3763902     1.3720099     4.3211107       -1.322001818   0.763258100   0.484689144
     0.0000005    -2.7440188     4.3211104       -0.000000107  -1.526516499   0.484689146

                       Lattice parameters(A)       Cell Angles
                    a =      5.118754          alpha =   55.323619
                    b =      5.118754          beta  =   55.323611
                    c =      5.118753          gamma =   55.323617

                Current cell volume =            84.532089 A**3
                            density =             2.412369 amu/A**3
                                    =             4.005832 g/cm^3

                           -------------------------------
                                     Cell Contents
                           -------------------------------

            xxxxxxxxxxxxxxxxxxxxxxxxxxxxxxxxxxxxxxxxxxxxxxxxxxxxxxxxxxxxxxxxx
            x  Element         Atom        Fractional coordinates of atoms  x
            x                 Number           u          v          w      x
            x---------------------------------------------------------------x
            x  O                 1         0.556133   0.943867   0.250000   x
            x  O                 2         0.943867   0.250000   0.556133   x
            x  O                 3         0.250000   0.556133   0.943867   x
            x  O                 4         0.056133   0.750000   0.443867   x
            x  O                 5         0.750000   0.443867   0.056133   x
            x  O                 6         0.443867   0.056133   0.750000   x
            x  Al                1         0.147980   0.147980   0.147979   x
            x  Al                2         0.647980   0.647980   0.647979   x
            x  Al                3         0.852021   0.852021   0.852020   x
            x  Al                4         0.352021   0.352021   0.352020   x
            xxxxxxxxxxxxxxxxxxxxxxxxxxxxxxxxxxxxxxxxxxxxxxxxxxxxxxxxxxxxxxxxx


------------------------------------------------------------------------ <-- SCF
SCF loop      Energy           Fermi           Energy gain       Timer   <-- SCF
                               energy          per atom          (sec)   <-- SCF
------------------------------------------------------------------------ <-- SCF
Initial  -3.09161959E+003  0.00000000E+000                       433.54  <-- SCF
      1  -3.09183279E+003  9.77948023E+000   2.13200855E-002     441.91  <-- SCF
      2  -3.09183641E+003  9.77945110E+000   3.62065022E-004     451.82  <-- SCF
      3  -3.09179484E+003  9.81841991E+000  -4.15732531E-003     461.11  <-- SCF
      4  -3.09179166E+003  9.79167773E+000  -3.18443826E-004     471.07  <-- SCF
      5  -3.09179120E+003  9.79802080E+000  -4.54429730E-005     481.18  <-- SCF
      6  -3.09179119E+003  9.79911148E+000  -6.37753116E-007     488.01  <-- SCF
      7  -3.09179120E+003  9.79900715E+000   1.73638075E-007     494.12  <-- SCF
------------------------------------------------------------------------ <-- SCF
 
Final energy, E             =  -3091.791196216     eV
Final free energy (E-TS)    =  -3091.791196216     eV
(energies not corrected for finite basis set)
 
NB est. 0K energy (E-0.5TS)      =  -3091.791196216     eV
 

 ************************************** Forces **************************************
 *                                                                                  *
 *                           Cartesian components (eV/A)                            *
 * -------------------------------------------------------------------------------- *
 *                         x                    y                    z              *
 *                                                                                  *
 * O               1     -0.01015             -0.00000             -0.00000         *
 * O               2      0.00507              0.00878              0.00000         *
 * O               3      0.00507             -0.00878              0.00001         *
 * O               4     -0.00507             -0.00878             -0.00000         *
 * O               5     -0.00507              0.00878             -0.00001         *
 * O               6      0.01015              0.00000              0.00000         *
 * Al              1     -0.00000              0.00000              0.00707         *
 * Al              2     -0.00000              0.00000              0.00706         *
 * Al              3      0.00000             -0.00000             -0.00706         *
 * Al              4      0.00000             -0.00000             -0.00707         *
 *                                                                                  *
 ************************************************************************************

 ***************** Stress Tensor *****************
 *                                               *
 *          Cartesian components (GPa)           *
 * --------------------------------------------- *
 *             x             y             z     *
 *                                               *
 *  x      0.154831     -0.000007      0.000040  *
 *  y     -0.000007      0.154724      0.000035  *
 *  z      0.000040      0.000035     -0.011942  *
 *                                               *
 *  Pressure:   -0.0992                          *
 *                                               *
 *************************************************
  
 +------------+-------------+-------------+-----------------+ <-- min LBFGS
 |    Step    |   lambda    |   F.delta'  |    enthalpy     | <-- min LBFGS
 +------------+-------------+-------------+-----------------+ <-- min LBFGS
 |  previous  |    0.000000 |    0.008358 |    -3091.793642 | <-- min LBFGS
 | trial step |    1.000000 |    0.008583 |    -3091.793525 | <-- min LBFGS
 |  line step |  -37.057692 |    0.064426 |    -3091.794383 | <-- min LBFGS
 |  quad step |    6.176513 |   -0.000598 |    -3091.793199 | <-- min LBFGS
 +------------+-------------+-------------+-----------------+ <-- min LBFGS
  
 LBFGS: finished iteration     2 with enthalpy= -3.09179320E+003 eV
  
 +-----------+-----------------+-----------------+------------+-----+ <-- LBFGS
 | Parameter |      value      |    tolerance    |    units   | OK? | <-- LBFGS
 +-----------+-----------------+-----------------+------------+-----+ <-- LBFGS
 |  dE/ion   |   4.421951E-005 |   1.000000E-005 |         eV | No  | <-- LBFGS
 |  |F|max   |   1.014824E-002 |   1.000000E-002 |       eV/A | No  | <-- LBFGS
 |  |dR|max  |   7.396464E-004 |   1.000000E-003 |          A | Yes | <-- LBFGS
 |   Smax    |   1.548314E-001 |   1.000000E-001 |        GPa | No  | <-- LBFGS
 +-----------+-----------------+-----------------+------------+-----+ <-- LBFGS
  

================================================================================
 Starting LBFGS iteration          3 ...
================================================================================
  
 +------------+-------------+-------------+-----------------+ <-- min LBFGS
 |    Step    |   lambda    |   F.delta'  |    enthalpy     | <-- min LBFGS
 +------------+-------------+-------------+-----------------+ <-- min LBFGS
 |  previous  |    0.000000 |    0.005012 |    -3091.793199 | <-- min LBFGS
 +------------+-------------+-------------+-----------------+ <-- min LBFGS
  

--------------------------------------------------------------------------------
 LBFGS: starting iteration         3 with trial guess (lambda=  1.000000)
--------------------------------------------------------------------------------

                           -------------------------------
                                      Unit Cell
                           -------------------------------
        Real Lattice(A)              Reciprocal Lattice(1/A)
     2.3761151     1.3718505     4.3206455        1.322155225   0.763346772   0.484741141
    -2.3761145     1.3718507     4.3206452       -1.322155240   0.763346658   0.484741359
     0.0000005    -2.7437005     4.3206448       -0.000000106  -1.526693611   0.484741358

                       Lattice parameters(A)       Cell Angles
                    a =      5.118191          alpha =   55.323264
                    b =      5.118190          beta  =   55.323256
                    c =      5.118190          gamma =   55.323261

                Current cell volume =            84.503368 A**3
                            density =             2.413189 amu/A**3
                                    =             4.007194 g/cm^3

                           -------------------------------
                                     Cell Contents
                           -------------------------------

            xxxxxxxxxxxxxxxxxxxxxxxxxxxxxxxxxxxxxxxxxxxxxxxxxxxxxxxxxxxxxxxxx
            x  Element         Atom        Fractional coordinates of atoms  x
            x                 Number           u          v          w      x
            x---------------------------------------------------------------x
            x  O                 1         0.556109   0.943891   0.250000   x
            x  O                 2         0.943891   0.250000   0.556109   x
            x  O                 3         0.250000   0.556109   0.943891   x
            x  O                 4         0.056109   0.750000   0.443891   x
            x  O                 5         0.750000   0.443891   0.056109   x
            x  O                 6         0.443891   0.056109   0.750000   x
            x  Al                1         0.147991   0.147992   0.147991   x
            x  Al                2         0.647991   0.647991   0.647991   x
            x  Al                3         0.852009   0.852009   0.852008   x
            x  Al                4         0.352009   0.352009   0.352008   x
            xxxxxxxxxxxxxxxxxxxxxxxxxxxxxxxxxxxxxxxxxxxxxxxxxxxxxxxxxxxxxxxxx


------------------------------------------------------------------------ <-- SCF
SCF loop      Energy           Fermi           Energy gain       Timer   <-- SCF
                               energy          per atom          (sec)   <-- SCF
------------------------------------------------------------------------ <-- SCF
Initial  -3.09179078E+003  0.00000000E+000                       507.37  <-- SCF
      1  -3.09179126E+003  9.80951239E+000   4.83394262E-005     517.79  <-- SCF
      2  -3.09179126E+003  9.80951221E+000   2.22533559E-007     523.45  <-- SCF
      3  -3.09179119E+003  9.80461806E+000  -7.39064550E-006     531.91  <-- SCF
      4  -3.09179115E+003  9.80671150E+000  -3.41633289E-006     537.43  <-- SCF
      5  -3.09179116E+003  9.80682566E+000   1.99164334E-007     543.17  <-- SCF
------------------------------------------------------------------------ <-- SCF
 
Final energy, E             =  -3091.791155346     eV
Final free energy (E-TS)    =  -3091.791155346     eV
(energies not corrected for finite basis set)
 
NB est. 0K energy (E-0.5TS)      =  -3091.791155346     eV
 

 ************************************** Forces **************************************
 *                                                                                  *
 *                           Cartesian components (eV/A)                            *
 * -------------------------------------------------------------------------------- *
 *                         x                    y                    z              *
 *                                                                                  *
 * O               1     -0.00303             -0.00000              0.00000         *
 * O               2      0.00151              0.00262              0.00000         *
 * O               3      0.00152             -0.00262              0.00000         *
 * O               4     -0.00151             -0.00262             -0.00000         *
 * O               5     -0.00152              0.00262             -0.00000         *
 * O               6      0.00304              0.00000              0.00000         *
 * Al              1      0.00000             -0.00000              0.00347         *
 * Al              2     -0.00000              0.00000              0.00347         *
 * Al              3      0.00000             -0.00000             -0.00347         *
 * Al              4      0.00000             -0.00000             -0.00347         *
 *                                                                                  *
 ************************************************************************************

 ***************** Stress Tensor *****************
 *                                               *
 *          Cartesian components (GPa)           *
 * --------------------------------------------- *
 *             x             y             z     *
 *                                               *
 *  x      0.054672     -0.000021      0.000043  *
 *  y     -0.000021      0.054584      0.000045  *
 *  z      0.000043      0.000045     -0.119070  *
 *                                               *
 *  Pressure:    0.0033                          *
 *                                               *
 *************************************************
  
 +------------+-------------+-------------+-----------------+ <-- min LBFGS
 |    Step    |   lambda    |   F.delta'  |    enthalpy     | <-- min LBFGS
 +------------+-------------+-------------+-----------------+ <-- min LBFGS
 |  previous  |    0.000000 |    0.005012 |    -3091.793199 | <-- min LBFGS
 | trial step |    1.000000 |    0.000701 |    -3091.793818 | <-- min LBFGS
 +------------+-------------+-------------+-----------------+ <-- min LBFGS
  
 LBFGS: finished iteration     3 with enthalpy= -3.09179382E+003 eV
  
 +-----------+-----------------+-----------------+------------+-----+ <-- LBFGS
 | Parameter |      value      |    tolerance    |    units   | OK? | <-- LBFGS
 +-----------+-----------------+-----------------+------------+-----+ <-- LBFGS
 |  dE/ion   |   6.183673E-005 |   1.000000E-005 |         eV | No  | <-- LBFGS
 |  |F|max   |   3.474132E-003 |   1.000000E-002 |       eV/A | Yes | <-- LBFGS
 |  |dR|max  |   1.538419E-004 |   1.000000E-003 |          A | Yes | <-- LBFGS
 |   Smax    |   1.190696E-001 |   1.000000E-001 |        GPa | No  | <-- LBFGS
 +-----------+-----------------+-----------------+------------+-----+ <-- LBFGS
  

================================================================================
 Starting LBFGS iteration          4 ...
================================================================================
  
 +------------+-------------+-------------+-----------------+ <-- min LBFGS
 |    Step    |   lambda    |   F.delta'  |    enthalpy     | <-- min LBFGS
 +------------+-------------+-------------+-----------------+ <-- min LBFGS
 |  previous  |    0.000000 |    0.002645 |    -3091.793818 | <-- min LBFGS
 +------------+-------------+-------------+-----------------+ <-- min LBFGS
  

--------------------------------------------------------------------------------
 LBFGS: starting iteration         4 with trial guess (lambda=  1.000000)
--------------------------------------------------------------------------------

                           -------------------------------
                                      Unit Cell
                           -------------------------------
        Real Lattice(A)              Reciprocal Lattice(1/A)
     2.3759134     1.3717341     4.3210489        1.322267382   0.763411447   0.484695968
    -2.3759132     1.3717342     4.3210487       -1.322267384   0.763411383   0.484696075
     0.0000002    -2.7434682     4.3210484       -0.000000056  -1.526822949   0.484696033

                       Lattice parameters(A)       Cell Angles
                    a =      5.118406          alpha =   55.315638
                    b =      5.118406          beta  =   55.315634
                    c =      5.118406          gamma =   55.315635

                Current cell volume =            84.496932 A**3
                            density =             2.413372 amu/A**3
                                    =             4.007499 g/cm^3

                           -------------------------------
                                     Cell Contents
                           -------------------------------

            xxxxxxxxxxxxxxxxxxxxxxxxxxxxxxxxxxxxxxxxxxxxxxxxxxxxxxxxxxxxxxxxx
            x  Element         Atom        Fractional coordinates of atoms  x
            x                 Number           u          v          w      x
            x---------------------------------------------------------------x
            x  O                 1         0.556106   0.943894   0.250000   x
            x  O                 2         0.943894   0.250000   0.556106   x
            x  O                 3         0.250000   0.556106   0.943894   x
            x  O                 4         0.056106   0.750000   0.443894   x
            x  O                 5         0.750000   0.443894   0.056106   x
            x  O                 6         0.443894   0.056106   0.750000   x
            x  Al                1         0.147991   0.147991   0.147991   x
            x  Al                2         0.647991   0.647991   0.647991   x
            x  Al                3         0.852009   0.852009   0.852009   x
            x  Al                4         0.352009   0.352009   0.352009   x
            xxxxxxxxxxxxxxxxxxxxxxxxxxxxxxxxxxxxxxxxxxxxxxxxxxxxxxxxxxxxxxxxx


------------------------------------------------------------------------ <-- SCF
SCF loop      Energy           Fermi           Energy gain       Timer   <-- SCF
                               energy          per atom          (sec)   <-- SCF
------------------------------------------------------------------------ <-- SCF
Initial  -3.09179183E+003  0.00000000E+000                       556.37  <-- SCF
      1  -3.09179295E+003  9.80925452E+000   1.12280090E-004     563.05  <-- SCF
      2  -3.09179296E+003  9.80925434E+000   3.98781220E-007     568.37  <-- SCF
      3  -3.09179295E+003  9.80817675E+000  -7.23028826E-007     573.68  <-- SCF
      4  -3.09179295E+003  9.80845911E+000  -2.11448269E-008     578.98  <-- SCF
------------------------------------------------------------------------ <-- SCF
 
Final energy, E             =  -3091.792947824     eV
Final free energy (E-TS)    =  -3091.792947824     eV
(energies not corrected for finite basis set)
 
NB est. 0K energy (E-0.5TS)      =  -3091.792947824     eV
 

 ************************************** Forces **************************************
 *                                                                                  *
 *                           Cartesian components (eV/A)                            *
 * -------------------------------------------------------------------------------- *
 *                         x                    y                    z              *
 *                                                                                  *
 * O               1      0.00016             -0.00000              0.00000         *
 * O               2     -0.00008             -0.00015             -0.00000         *
 * O               3     -0.00008              0.00014              0.00000         *
 * O               4      0.00008              0.00015              0.00000         *
 * O               5      0.00008             -0.00015             -0.00000         *
 * O               6     -0.00016              0.00000              0.00000         *
 * Al              1      0.00000              0.00000              0.00505         *
 * Al              2     -0.00000              0.00000              0.00504         *
 * Al              3     -0.00000             -0.00000             -0.00504         *
 * Al              4      0.00000             -0.00000             -0.00505         *
 *                                                                                  *
 ************************************************************************************

 ***************** Stress Tensor *****************
 *                                               *
 *          Cartesian components (GPa)           *
 * --------------------------------------------- *
 *             x             y             z     *
 *                                               *
 *  x      0.032739     -0.000012      0.000018  *
 *  y     -0.000012      0.032714      0.000025  *
 *  z      0.000018      0.000025     -0.067934  *
 *                                               *
 *  Pressure:    0.0008                          *
 *                                               *
 *************************************************
  
 +------------+-------------+-------------+-----------------+ <-- min LBFGS
 |    Step    |   lambda    |   F.delta'  |    enthalpy     | <-- min LBFGS
 +------------+-------------+-------------+-----------------+ <-- min LBFGS
 |  previous  |    0.000000 |    0.002645 |    -3091.793818 | <-- min LBFGS
 | trial step |    1.000000 |    0.001507 |    -3091.793824 | <-- min LBFGS
 +------------+-------------+-------------+-----------------+ <-- min LBFGS
  
 LBFGS: finished iteration     4 with enthalpy= -3.09179382E+003 eV
  
 +-----------+-----------------+-----------------+------------+-----+ <-- LBFGS
 | Parameter |      value      |    tolerance    |    units   | OK? | <-- LBFGS
 +-----------+-----------------+-----------------+------------+-----+ <-- LBFGS
 |  dE/ion   |   6.431649E-007 |   1.000000E-005 |         eV | Yes | <-- LBFGS
 |  |F|max   |   5.046647E-003 |   1.000000E-002 |       eV/A | Yes | <-- LBFGS
 |  |dR|max  |   1.117168E-005 |   1.000000E-003 |          A | Yes | <-- LBFGS
 |   Smax    |   6.793437E-002 |   1.000000E-001 |        GPa | Yes | <-- LBFGS
 +-----------+-----------------+-----------------+------------+-----+ <-- LBFGS
  
 LBFGS: Geometry optimization completed successfully.

================================================================================
 LBFGS: Final Configuration:
================================================================================

                           -------------------------------
                                      Unit Cell
                           -------------------------------
        Real Lattice(A)              Reciprocal Lattice(1/A)
     2.3759134     1.3717341     4.3210489        1.322267382   0.763411447   0.484695968
    -2.3759132     1.3717342     4.3210487       -1.322267384   0.763411383   0.484696075
     0.0000002    -2.7434682     4.3210484       -0.000000056  -1.526822949   0.484696033

                       Lattice parameters(A)       Cell Angles
                    a =      5.118406          alpha =   55.315638
                    b =      5.118406          beta  =   55.315634
                    c =      5.118406          gamma =   55.315635

                Current cell volume =            84.496932 A**3
                            density =             2.413372 amu/A**3
                                    =             4.007499 g/cm^3

                           -------------------------------
                                     Cell Contents
                           -------------------------------

            xxxxxxxxxxxxxxxxxxxxxxxxxxxxxxxxxxxxxxxxxxxxxxxxxxxxxxxxxxxxxxxxx
            x  Element         Atom        Fractional coordinates of atoms  x
            x                 Number           u          v          w      x
            x---------------------------------------------------------------x
            x  O                 1         0.556106   0.943894   0.250000   x
            x  O                 2         0.943894   0.250000   0.556106   x
            x  O                 3         0.250000   0.556106   0.943894   x
            x  O                 4         0.056106   0.750000   0.443894   x
            x  O                 5         0.750000   0.443894   0.056106   x
            x  O                 6         0.443894   0.056106   0.750000   x
            x  Al                1         0.147991   0.147991   0.147991   x
            x  Al                2         0.647991   0.647991   0.647991   x
            x  Al                3         0.852009   0.852009   0.852009   x
            x  Al                4         0.352009   0.352009   0.352009   x
            xxxxxxxxxxxxxxxxxxxxxxxxxxxxxxxxxxxxxxxxxxxxxxxxxxxxxxxxxxxxxxxxx


 LBFGS: Final Enthalpy     = -3.09179382E+003 eV
 LBFGS: Final <frequency>  =    1164.52537 cm-1
 LBFGS: Final bulk modulus =     287.98351 GPa

 ************************************** Forces **************************************
 *                                                                                  *
 *                           Cartesian components (eV/A)                            *
 * -------------------------------------------------------------------------------- *
 *                         x                    y                    z              *
 *                                                                                  *
 * O               1      0.00016             -0.00000              0.00000         *
 * O               2     -0.00008             -0.00015             -0.00000         *
 * O               3     -0.00008              0.00014              0.00000         *
 * O               4      0.00008              0.00015              0.00000         *
 * O               5      0.00008             -0.00015             -0.00000         *
 * O               6     -0.00016              0.00000              0.00000         *
 * Al              1      0.00000              0.00000              0.00505         *
 * Al              2     -0.00000              0.00000              0.00504         *
 * Al              3     -0.00000             -0.00000             -0.00504         *
 * Al              4      0.00000             -0.00000             -0.00505         *
 *                                                                                  *
 ************************************************************************************

 ***************** Stress Tensor *****************
 *                                               *
 *          Cartesian components (GPa)           *
 * --------------------------------------------- *
 *             x             y             z     *
 *                                               *
 *  x      0.032739     -0.000012      0.000018  *
 *  y     -0.000012      0.032714      0.000025  *
 *  z      0.000018      0.000025     -0.067934  *
 *                                               *
 *  Pressure:    0.0008                          *
 *                                               *
 *************************************************

 Pseudo atomic calculation performed for O 2s2 2p4

 Converged in 24 iterations to a total energy of -431.0830 eV

 Pseudo atomic calculation performed for Al 3s2 3p1

 Converged in 15 iterations to a total energy of -105.5952 eV
Charge spilling parameter for spin component 1 = 0.77%

            Orbital Populations       
     Ion    Atom   Orbital             Charge
  -------------------------------------------
      O     1      S                    1.832
      O     1      Px                   1.723
      O     1      Py                   1.756
      O     1      Pz                   1.746
      O     2      S                    1.832
      O     2      Px                   1.748
      O     2      Py                   1.731
      O     2      Pz                   1.746
      O     3      S                    1.832
      O     3      Px                   1.748
      O     3      Py                   1.731
      O     3      Pz                   1.746
      O     4      S                    1.832
      O     4      Px                   1.748
      O     4      Py                   1.731
      O     4      Pz                   1.746
      O     5      S                    1.832
      O     5      Px                   1.748
      O     5      Py                   1.731
      O     5      Pz                   1.746
      O     6      S                    1.832
      O     6      Px                   1.723
      O     6      Py                   1.756
      O     6      Pz                   1.746
     Al     1      S                    0.513
     Al     1      Px                   0.303
     Al     1      Py                   0.303
     Al     1      Pz                   0.297
     Al     2      S                    0.513
     Al     2      Px                   0.303
     Al     2      Py                   0.303
     Al     2      Pz                   0.297
     Al     3      S                    0.513
     Al     3      Px                   0.303
     Al     3      Py                   0.303
     Al     3      Pz                   0.297
     Al     4      S                    0.513
     Al     4      Px                   0.303
     Al     4      Py                   0.303
     Al     4      Pz                   0.297
  -------------------------------------------
                           Total:      48.000
  -------------------------------------------

     Atomic Populations (Mulliken)
     -----------------------------
Species          Ion     s      p      d      f     Total  Charge (e)
=====================================================================
  O               1     1.83   5.22   0.00   0.00   7.06    -1.06
  O               2     1.83   5.22   0.00   0.00   7.06    -1.06
  O               3     1.83   5.22   0.00   0.00   7.06    -1.06
  O               4     1.83   5.22   0.00   0.00   7.06    -1.06
  O               5     1.83   5.22   0.00   0.00   7.06    -1.06
  O               6     1.83   5.22   0.00   0.00   7.06    -1.06
  Al              1     0.51   0.90   0.00   0.00   1.42     1.58
  Al              2     0.51   0.90   0.00   0.00   1.42     1.58
  Al              3     0.51   0.90   0.00   0.00   1.42     1.58
  Al              4     0.51   0.90   0.00   0.00   1.42     1.58
=====================================================================

                 Bond                   Population      Length (A)
======================================================================
               O 1 -- Al 3                   0.36        1.85285
               O 6 -- Al 1                   0.36        1.85285
               O 5 -- Al 1                   0.36        1.85285
               O 6 -- Al 4                   0.36        1.85285
               O 2 -- Al 2                   0.36        1.85285
               O 1 -- Al 2                   0.36        1.85285
               O 5 -- Al 4                   0.36        1.85285
               O 4 -- Al 4                   0.36        1.85285
               O 3 -- Al 3                   0.36        1.85285
               O 3 -- Al 2                   0.36        1.85285
               O 2 -- Al 3                   0.36        1.85285
               O 4 -- Al 1                   0.36        1.85285
               O 4 -- Al 3                   0.26        1.96580
               O 2 -- Al 1                   0.26        1.96580
               O 6 -- Al 2                   0.26        1.96580
               O 5 -- Al 2                   0.26        1.96580
               O 4 -- Al 2                   0.26        1.96580
               O 3 -- Al 4                   0.26        1.96580
               O 2 -- Al 4                   0.26        1.96580
               O 3 -- Al 1                   0.26        1.96580
               O 5 -- Al 3                   0.26        1.96580
               O 1 -- Al 4                   0.26        1.96580
               O 6 -- Al 3                   0.26        1.96580
               O 1 -- Al 1                   0.26        1.96580
               O 4 -- O 5                   -0.17        2.51938
               O 2 -- O 3                   -0.17        2.51938
               O 4 -- O 6                   -0.17        2.51938
               O 1 -- O 2                   -0.17        2.51938
               O 5 -- O 6                   -0.17        2.51938
               O 1 -- O 3                   -0.17        2.51938
               O 2 -- O 4                   -0.17        2.61416
               O 1 -- O 6                   -0.17        2.61416
               O 3 -- O 5                   -0.17        2.61416
              Al 2 -- Al 3                  -0.52        2.64471
              Al 1 -- Al 4                  -0.52        2.64471
               O 3 -- O 4                   -0.10        2.72000
               O 1 -- O 5                   -0.10        2.72000
               O 2 -- O 6                   -0.10        2.72000
               O 2 -- O 5                   -0.10        2.72000
               O 3 -- O 6                   -0.10        2.72000
               O 1 -- O 4                   -0.10        2.72000
              Al 1 -- Al 3                  -0.65        2.78587
              Al 2 -- Al 4                  -0.65        2.78587
======================================================================


Writing analysis data to al2o3_xc-LDA_c-0600_k-8x8x8_geom.castep_bin

Writing model to al2o3_xc-LDA_c-0600_k-8x8x8_geom.check
 
 A BibTeX formatted list of references used in this run has been written to 
 al2o3_xc-LDA_c-0600_k-8x8x8_geom.bib
 
Initialisation time =      7.38 s
Calculation time    =    588.77 s
Finalisation time   =      0.39 s
Total time          =    596.54 s
Peak Memory Use     = 650084 kB
  
Overall parallel efficiency rating: Excellent (97%)                             
  
Data was distributed by:-
k-point (9-way); efficiency rating: Excellent (98%)                             
  
Parallel notes:
1) Calculation only took 596.2 s, so efficiency estimates may be inaccurate.    
