 +-------------------------------------------------+
 |                                                 |
 |      CCC   AA    SSS  TTTTT  EEEEE  PPPP        |
 |     C     A  A  S       T    E      P   P       |
 |     C     AAAA   SS     T    EEE    PPPP        |
 |     C     A  A     S    T    E      P           |
 |      CCC  A  A  SSS     T    EEEEE  P           |
 |                                                 |
 +-------------------------------------------------+
 |                                                 |
 | Welcome to Academic Release CASTEP version 19.11|          
 | Ab Initio Total Energy Program                  |
 |                                                 |
 | Authors:                                        |
 | M. Segall, M. Probert, C. Pickard, P. Hasnip,   |
 | S. Clark, K. Refson, J. R. Yates, M. Payne      |
 |                                                 |
 | Contributors:                                   |
 | P. Lindan, P. Haynes, J. White, V. Milman,      |
 | N. Govind, M. Gibson, P. Tulip, V. Cocula,      |
 | B. Montanari, D. Quigley, M. Glover,            |
 | L. Bernasconi, A. Perlov, M. Plummer,           |
 | E. McNellis, J. Meyer, J. Gale, D. Jochym       |
 | J. Aarons, B. Walker, R. Gillen, D. Jones       |
 | T. Green, I. J. Bush, C. J. Armstrong,          |
 | E. J. Higgins, E. L. Brown, M. S. McFly,        |
 | J. Wilkins, B-C. Shih, P. J. P. Byrne           |
 |                                                 |
 | Copyright (c) 2000 - 2018                       |
 |                                                 |
 |     Distributed under the terms of an           |
 |     Agreement between the United Kingdom        |
 |     Car-Parrinello (UKCP) Consortium,           |
 |     Daresbury Laboratory and Accelrys, Inc.     |
 |                                                 |
 | Please cite                                     |
 |                                                 |
 |     "First principles methods using CASTEP"     |
 |                                                 |
 |         Zeitschrift fuer Kristallographie       |
 |           220(5-6) pp. 567-570 (2005)           |
 |                                                 |
 | S. J. Clark, M. D. Segall, C. J. Pickard,       |
 | P. J. Hasnip, M. J. Probert, K. Refson,         |
 | M. C. Payne                                     |
 |                                                 |
 |       in all publications arising from          |
 |              your use of CASTEP                 |
 |                                                 |
 +-------------------------------------------------+
 |                                                 |
 |              http://www.castep.org              |
 |                                                 |
 +-------------------------------------------------+



 Compiled for linux_x86_64_gfortran7.0 on Fri, 31 Jan 2020 20:20:28 +0100
 from code version e1fe0d666396+ Castep191_branch Thu, 24 Oct 2019 13:54:03 +0100
 Compiler: GNU Fortran 7.4.0; Optimisation: fast
 MATHLIBS: default (LAPACK version 3.7.1)
 FFT Lib : default
 Fundamental constants values: CODATA 2014

 Run started: Mon, 08 Nov 2021 12:58:02 +0100

 Atomic calculation performed for O: 1s2 2s2 2p4

 Converged in 57 iterations to an ae energy of -2034.019 eV

   ============================================================                
   | Pseudopotential Report - Date of generation  8-11-2021   |                
   ------------------------------------------------------------                
   | Element: O Ionic charge:  6.00 Level of theory: PBESOL   |                
   | Atomic Solver: Koelling-Harmon                           |                
   |                                                          |                
   |               Reference Electronic Structure             |                
   |         Orbital         Occupation         Energy        |                
   |            2s              2.000           -0.875        |                
   |            2p              4.000           -0.330        |                
   |                                                          |                
   |                 Pseudopotential Definition               |                
   |        Beta     l      e      Rc     scheme   norm       |                
   |          1      0   -0.875   1.100     qc      0         |                
   |          2      0    0.250   1.100     qc      0         |                
   |          3      1   -0.330   1.100     qc      0         |                
   |          4      1    0.250   1.100     qc      0         |                
   |         loc     2    0.000   1.100     pn      0         |                
   |                                                          |                
   | Augmentation charge Rinner = 0.769                       |                
   | Partial core correction Rc = 0.769                       |                
   ------------------------------------------------------------                
   | "2|1.1|17|20|23|20:21(qc=8)"                             |                
   ------------------------------------------------------------                
   |      Author: Chris J. Pickard, Cambridge University      |                
   ============================================================                

 Atomic calculation performed for Al: 1s2 2s2 2p6 3s2 3p1

 Converged in 55 iterations to an ae energy of -6590.489 eV

   ============================================================                
   | Pseudopotential Report - Date of generation  8-11-2021   |                
   ------------------------------------------------------------                
   | Element: Al Ionic charge:  3.00 Level of theory: PBESOL  |                
   | Atomic Solver: Koelling-Harmon                           |                
   |                                                          |                
   |               Reference Electronic Structure             |                
   |         Orbital         Occupation         Energy        |                
   |            3s              2.000           -0.284        |                
   |            3p              1.000           -0.099        |                
   |                                                          |                
   |                 Pseudopotential Definition               |                
   |        Beta     l      e      Rc     scheme   norm       |                
   |          1      0   -0.284   2.192     qc      0         |                
   |          2      0    0.250   2.192     qc      0         |                
   |          3      1   -0.099   2.192     qc      0         |                
   |          4      1    0.250   2.192     qc      0         |                
   |          5      2    0.000   2.000     qc      0         |                
   |          6      2    0.250   2.000     qc      0         |                
   |         loc     3    0.000   2.192     pn      0         |                
   |                                                          |                
   | Augmentation charge Rinner = 1.398                       |                
   | Partial core correction Rc = 1.398                       |                
   ------------------------------------------------------------                
   | "3|2.2|2.2|1.4|4|5|5|30:31:32U2U2"                       |                
   ------------------------------------------------------------                
   |      Author: Chris J. Pickard, Cambridge University      |                
   ============================================================                

 Pseudo atomic calculation performed for O 2s2 2p4

 Converged in 14 iterations to a total energy of -431.1372 eV

 Pseudo atomic calculation performed for Al 3s2 3p1

 Converged in 11 iterations to a total energy of -105.9172 eV
 Calculation parallelised over 9 processes.
 Data is distributed by k-point(9-way)

 ************************************ Title ************************************
 

 ***************************** General Parameters ******************************
  
 output verbosity                               : normal  (1)
 write checkpoint data to                       : al2o3_xc-PBESOL_c-1200_k-5x5x5_geom.check
 type of calculation                            : geometry optimization
 stress calculation                             : off
 density difference calculation                 : off
 electron localisation func (ELF) calculation   : off
 Hirshfeld analysis                             : off
 unlimited duration calculation
 timing information                             : on
 memory usage estimate                          : on
 write extra output files                       : on
 write final potential to formatted file        : off
 write final density to formatted file          : off
 write structure in CIF formatted file          : on
 write structure in CELL formatted file         : on
 write BibTeX reference list                    : on
 write OTFG pseudopotential files               : on
 write electrostatic potential file             : on
 write bands file                               : on
 checkpoint writing                             : both castep_bin and check files
  
 output         length unit                     : A
 output           mass unit                     : amu
 output           time unit                     : ps
 output         charge unit                     : e
 output           spin unit                     : hbar/2
 output         energy unit                     : eV
 output          force unit                     : eV/A
 output       velocity unit                     : A/ps
 output       pressure unit                     : GPa
 output     inv_length unit                     : 1/A
 output      frequency unit                     : cm-1
 output force constant unit                     : eV/A**2
 output         volume unit                     : A**3
 output   IR intensity unit                     : (D/A)**2/amu
 output         dipole unit                     : D
 output         efield unit                     : eV/A/e
 output        entropy unit                     : J/mol/K
  
 wavefunctions paging                           : none
 random number generator seed                   : randomised (125802947)
 data distribution                              : optimal for this architecture
 optimization strategy                          : maximize speed(+++)

 *********************** Exchange-Correlation Parameters ***********************
  
 using functional                               : PBE for solids (2008)
 relativistic treatment                         : Koelling-Harmon
 DFT+D: Semi-empirical dispersion correction    : off

 ************************* Pseudopotential Parameters **************************
  
 pseudopotential representation                 : reciprocal space
 <beta|phi> representation                      : reciprocal space
 spin-orbit coupling                            : off

 **************************** Basis Set Parameters *****************************
  
 plane wave basis set cut-off                   :  1200.0000   eV
 size of standard grid                          :     1.7500
 size of   fine   gmax                          :    31.0576   1/A
 finite basis set correction                    : automatic
 number of sample energies                      :          3
           sample  spacing                      :     5.0000   eV

 **************************** Electronic Parameters ****************************
  
 number of  electrons                           :  48.00    
 net charge of system                           :  0.000    
 treating system as non-spin-polarized
 number of bands                                :         29

 ********************* Electronic Minimization Parameters **********************
  
 Method: Treating system as metallic with density mixing treatment of electrons,
         and number of  SD  steps               :          1
         and number of  CG  steps               :          4
  
 total energy / atom convergence tol.           : 0.1000E-04   eV
 eigen-energy convergence tolerance             : 0.1000E-05   eV
 max force / atom convergence tol.              : ignored
 convergence tolerance window                   :          3   cycles
 max. number of SCF cycles                      :         30
 number of fixed-spin iterations                :         10
 smearing scheme                                : Gaussian
 smearing width                                 : 0.2000       eV
 Fermi energy convergence tolerance             : 0.2721E-13   eV
 periodic dipole correction                     : NONE

 ************************** Density Mixing Parameters **************************
  
 density-mixing scheme                          : Broyden
 max. length of mixing history                  :         20
 charge density mixing amplitude                : 0.8000    
 cut-off energy for mixing                      :  1200.       eV

 *********************** Population Analysis Parameters ************************
  
 Population analysis with cutoff                :  3.000       A
 Population analysis output                     : summary and pdos components

 ********************** Geometry Optimization Parameters ***********************
  
 optimization method                            : LBFGS
 max. no. of LBFGS updates                      : unbounded
 variable cell method                           : fixed basis quality
 max. number of steps                           :        150
 estimated bulk modulus                         :  500.0       GPa
 estimated <frequency>                          :  1668.       cm-1
 geom line minimiser                            : on
 with line minimiser tolerance                  :     0.4000
 total energy convergence tolerance             : 0.1000E-04   eV/atom
        max ionic |force| tolerance             : 0.1000E-01   eV/A
 max ionic |displacement| tolerance             : 0.1000E-02   A
   max |stress component| tolerance             : 0.1000       GPa
 convergence tolerance window                   :          2   steps
 backup results every                           :          5   steps
 write geom trajectory file                     : on

 *******************************************************************************
  

                           -------------------------------
                                      Unit Cell
                           -------------------------------
        Real Lattice(A)                      Reciprocal Lattice(1/A)
     2.3801000     1.3741510     4.3310000        1.319941454   0.762068577   0.483582396
    -2.3801000     1.3741510     4.3310000       -1.319941454   0.762068577   0.483582396
     0.0000000    -2.7483030     4.3310000       -0.000000000  -1.524137154   0.483582220

                       Lattice parameters(A)       Cell Angles
                    a =      5.129398          alpha =   55.292535
                    b =      5.129398          beta  =   55.292535
                    c =      5.129399          gamma =   55.292537

                       Current cell volume =            84.990269       A**3
                                   density =             2.399364   AMU/A**3
                                           =             3.984237     g/cm^3

                           -------------------------------
                                     Cell Contents
                           -------------------------------
                         Total number of ions in cell =   10
                      Total number of species in cell =    2
                        Max number of any one species =    6

            xxxxxxxxxxxxxxxxxxxxxxxxxxxxxxxxxxxxxxxxxxxxxxxxxxxxxxxxxxxx
            x  Element    Atom        Fractional coordinates of atoms  x
            x            Number           u          v          w      x
            x----------------------------------------------------------x
            x  O            1         0.556260   0.943740   0.250000   x 
            x  O            2         0.943740   0.250000   0.556260   x 
            x  O            3         0.250000   0.556260   0.943740   x 
            x  O            4         0.056260   0.750000   0.443740   x 
            x  O            5         0.750000   0.443740   0.056260   x 
            x  O            6         0.443740   0.056260   0.750000   x 
            x  Al           1         0.147900   0.147900   0.147900   x 
            x  Al           2         0.647900   0.647900   0.647900   x 
            x  Al           3         0.852100   0.852100   0.852100   x 
            x  Al           4         0.352100   0.352100   0.352100   x 
            xxxxxxxxxxxxxxxxxxxxxxxxxxxxxxxxxxxxxxxxxxxxxxxxxxxxxxxxxxxx


                         No user defined ionic velocities

                           -------------------------------
                                   Details of Species
                           -------------------------------

                               Mass of species in AMU
                                    O   15.9994000
                                    Al   26.9815400

                          Electric Quadrupole Moment (Barn)
                                    O   -0.0255800 Isotope 17
                                    Al    0.1466000 Isotope 27

                          Files used for pseudopotentials:
                                    O 2|1.1|17|20|23|20:21(qc=8)
                                    Al 3|2.2|2.2|1.4|4|5|5|30:31:32U2U2

                           -------------------------------
                              k-Points For BZ Sampling
                           -------------------------------
                       MP grid size for SCF calculation is  5  5  5
                            with an offset of   0.000  0.000  0.000
                       Number of kpoints used =            63

                           -------------------------------
                               Symmetry and Constraints
                           -------------------------------

                      Maximum deviation from symmetry =  0.00000         ANG

                      Number of symmetry operations   =           1
                      Number of ionic constraints     =           3
                      Point group of crystal =     1: C1, 1, 1
                      Space group of crystal =   167: R-3c, -R 3 2"c

             Set iprint > 1 for details on symmetry rotations/translations

                         Centre of mass is constrained
             Set iprint > 1 for details of linear ionic constraints

                         Number of cell constraints= 0
                         Cell constraints are:  1 2 3 4 5 6

                         External pressure/stress (GPa)
                          0.00000   0.00000   0.00000
                                    0.00000   0.00000
                                              0.00000
  
+---------------- MEMORY AND SCRATCH DISK ESTIMATES PER PROCESS --------------+
|                                                     Memory          Disk    |
| Baseline code, static data and system overhead      196.0 MB         0.0 MB |
| BLAS internal memory storage                          0.0 MB         0.0 MB |
| Model and support data                              358.1 MB         0.0 MB |
| Electronic energy minimisation requirements          97.8 MB         0.0 MB |
| Force calculation requirements                       22.8 MB         0.0 MB |
|                                               ----------------------------- |
| Approx. total storage required per process          651.9 MB         0.0 MB |
|                                                                             |
| Requirements will fluctuate during execution and may exceed these estimates |
+-----------------------------------------------------------------------------+
Calculating finite basis set correction with  3 cut-off energies.
Calculating total energy with cut-off of 1190.000 eV.
------------------------------------------------------------------------ <-- SCF
SCF loop      Energy           Fermi           Energy gain       Timer   <-- SCF
                               energy          per atom          (sec)   <-- SCF
------------------------------------------------------------------------ <-- SCF
Initial  -2.25286556E+003  0.00000000E+000                        11.13  <-- SCF
      1  -2.89839342E+003  9.95198292E+000   6.45527857E+001      24.59  <-- SCF
      2  -3.09183558E+003  2.81176786E+000   1.93442162E+001      35.66  <-- SCF
      3  -3.09682927E+003  2.98317249E+000   4.99368643E-001      46.19  <-- SCF
      4  -3.09273804E+003  7.01631296E+000  -4.09122748E-001      60.16  <-- SCF
      5  -3.08936457E+003  5.45413028E+000  -3.37346819E-001      74.07  <-- SCF
      6  -3.08936662E+003  5.54646175E+000   2.04315270E-004      87.57  <-- SCF
      7  -3.08936837E+003  5.59987539E+000   1.75623811E-004      99.85  <-- SCF
      8  -3.08936845E+003  5.59510455E+000   7.63238108E-006     111.23  <-- SCF
      9  -3.08936845E+003  5.59282495E+000   4.44140475E-007     120.24  <-- SCF
------------------------------------------------------------------------ <-- SCF
 
Final energy, E             =  -3089.368453310     eV
Final free energy (E-TS)    =  -3089.368453310     eV
(energies not corrected for finite basis set)
 
NB est. 0K energy (E-0.5TS)      =  -3089.368453310     eV
 
Calculating total energy with cut-off of 1195.000 eV.
------------------------------------------------------------------------ <-- SCF
SCF loop      Energy           Fermi           Energy gain       Timer   <-- SCF
                               energy          per atom          (sec)   <-- SCF
------------------------------------------------------------------------ <-- SCF
Initial  -3.08936845E+003  0.00000000E+000                       123.96  <-- SCF
      1  -3.08936849E+003  5.59369157E+000   3.53120013E-006     132.06  <-- SCF
      2  -3.08936850E+003  5.59369155E+000   7.79686171E-007     140.70  <-- SCF
      3  -3.08936850E+003  5.59377857E+000   2.69878928E-007     149.23  <-- SCF
      4  -3.08936850E+003  5.59372011E+000   1.28986785E-007     157.53  <-- SCF
------------------------------------------------------------------------ <-- SCF
 
Final energy, E             =  -3089.368499631     eV
Final free energy (E-TS)    =  -3089.368499631     eV
(energies not corrected for finite basis set)
 
NB est. 0K energy (E-0.5TS)      =  -3089.368499631     eV
 
Calculating total energy with cut-off of 1200.000 eV.
------------------------------------------------------------------------ <-- SCF
SCF loop      Energy           Fermi           Energy gain       Timer   <-- SCF
                               energy          per atom          (sec)   <-- SCF
------------------------------------------------------------------------ <-- SCF
Initial  -3.08936850E+003  0.00000000E+000                       161.25  <-- SCF
      1  -3.08936854E+003  5.59391682E+000   3.92058956E-006     168.91  <-- SCF
      2  -3.08936854E+003  5.59391682E+000   1.68945506E-007     176.71  <-- SCF
      3  -3.08936854E+003  5.59380355E+000   2.52130732E-008     184.67  <-- SCF
      4  -3.08936854E+003  5.59384206E+000   3.61209851E-009     192.59  <-- SCF
------------------------------------------------------------------------ <-- SCF
 
Final energy, E             =  -3089.368540771     eV
Final free energy (E-TS)    =  -3089.368540771     eV
(energies not corrected for finite basis set)
 
NB est. 0K energy (E-0.5TS)      =  -3089.368540771     eV
 
 For future reference: finite basis dEtot/dlog(Ecut) =      -0.010109eV
 Total energy corrected for finite basis set =   -3089.368540 eV
 
+---------------- MEMORY AND SCRATCH DISK ESTIMATES PER PROCESS --------------+
|                                                     Memory          Disk    |
| Model and support data                              362.8 MB         0.0 MB |
| Electronic energy minimisation requirements          97.8 MB         0.0 MB |
| Geometry minimisation requirements                  125.7 MB         0.0 MB |
|                                               ----------------------------- |
| Approx. total storage required per process          586.2 MB         0.0 MB |
|                                                                             |
| Requirements will fluctuate during execution and may exceed these estimates |
+-----------------------------------------------------------------------------+
 

 ************************************** Forces **************************************
 *                                                                                  *
 *                           Cartesian components (eV/A)                            *
 * -------------------------------------------------------------------------------- *
 *                         x                    y                    z              *
 *                                                                                  *
 * O               1     -0.03553              0.00002             -0.00001         *
 * O               2      0.01774              0.03078              0.00001         *
 * O               3      0.01776             -0.03079              0.00000         *
 * O               4     -0.01774             -0.03078             -0.00001         *
 * O               5     -0.01777              0.03080              0.00000         *
 * O               6      0.03555             -0.00003              0.00001         *
 * Al              1      0.00000              0.00001              0.02024         *
 * Al              2      0.00000             -0.00000              0.02024         *
 * Al              3     -0.00000             -0.00001             -0.02024         *
 * Al              4     -0.00000             -0.00000             -0.02024         *
 *                                                                                  *
 ************************************************************************************

 ***************** Stress Tensor *****************
 *                                               *
 *          Cartesian components (GPa)           *
 * --------------------------------------------- *
 *             x             y             z     *
 *                                               *
 *  x     -1.788332      0.000012      0.000002  *
 *  y      0.000012     -1.788390     -0.000021  *
 *  z      0.000002     -0.000021     -1.197617  *
 *                                               *
 *  Pressure:    1.5914                          *
 *                                               *
 *************************************************
 LBFGS: finished iteration     0 with enthalpy= -3.08936854E+003 eV
  
 +-----------+-----------------+-----------------+------------+-----+ <-- LBFGS
 | Parameter |      value      |    tolerance    |    units   | OK? | <-- LBFGS
 +-----------+-----------------+-----------------+------------+-----+ <-- LBFGS
 |  dE/ion   |   0.000000E+000 |   1.000000E-005 |         eV | No  | <-- LBFGS
 |  |F|max   |   3.555766E-002 |   1.000000E-002 |       eV/A | No  | <-- LBFGS
 |  |dR|max  |   0.000000E+000 |   1.000000E-003 |          A | No  | <-- LBFGS
 |   Smax    |   1.788390E+000 |   1.000000E-001 |        GPa | No  | <-- LBFGS
 +-----------+-----------------+-----------------+------------+-----+ <-- LBFGS
  

================================================================================
 Starting LBFGS iteration          1 ...
================================================================================
  
 +------------+-------------+-------------+-----------------+ <-- min LBFGS
 |    Step    |   lambda    |   F.delta'  |    enthalpy     | <-- min LBFGS
 +------------+-------------+-------------+-----------------+ <-- min LBFGS
 |  previous  |    0.000000 |    0.055295 |    -3089.368540 | <-- min LBFGS
 +------------+-------------+-------------+-----------------+ <-- min LBFGS
  

--------------------------------------------------------------------------------
 LBFGS: starting iteration         1 with trial guess (lambda=  1.000000)
--------------------------------------------------------------------------------
 
+---------------- MEMORY AND SCRATCH DISK ESTIMATES PER PROCESS --------------+
|                                                     Memory          Disk    |
| Model and support data                              362.9 MB         0.0 MB |
| Electronic energy minimisation requirements          98.0 MB         0.0 MB |
| Geometry minimisation requirements                  125.9 MB         0.0 MB |
|                                               ----------------------------- |
| Approx. total storage required per process          586.7 MB         0.0 MB |
|                                                                             |
| Requirements will fluctuate during execution and may exceed these estimates |
+-----------------------------------------------------------------------------+
 

                           -------------------------------
                                      Unit Cell
                           -------------------------------
        Real Lattice(A)              Reciprocal Lattice(1/A)
     2.3829376     1.3757894     4.3344579        1.318369672   0.761161079   0.483196597
    -2.3829376     1.3757894     4.3344579       -1.318369658   0.761161058   0.483196594
     0.0000000    -2.7515796     4.3344579       -0.000000012  -1.522322157   0.483196452

                       Lattice parameters(A)       Cell Angles
                    a =      5.134074          alpha =   55.309373
                    b =      5.134074          beta  =   55.309373
                    c =      5.134074          gamma =   55.309374

                Current cell volume =            85.261066 A**3
                            density =             2.391743 amu/A**3
                                    =             3.971583 g/cm^3

                           -------------------------------
                                     Cell Contents
                           -------------------------------

            xxxxxxxxxxxxxxxxxxxxxxxxxxxxxxxxxxxxxxxxxxxxxxxxxxxxxxxxxxxxxxxxx
            x  Element         Atom        Fractional coordinates of atoms  x
            x                 Number           u          v          w      x
            x---------------------------------------------------------------x
            x  O                 1         0.556224   0.943776   0.250000   x
            x  O                 2         0.943776   0.250000   0.556224   x
            x  O                 3         0.250000   0.556224   0.943776   x
            x  O                 4         0.056224   0.750000   0.443776   x
            x  O                 5         0.750000   0.443776   0.056224   x
            x  O                 6         0.443776   0.056224   0.750000   x
            x  Al                1         0.147908   0.147908   0.147907   x
            x  Al                2         0.647908   0.647908   0.647907   x
            x  Al                3         0.852093   0.852093   0.852092   x
            x  Al                4         0.352093   0.352093   0.352092   x
            xxxxxxxxxxxxxxxxxxxxxxxxxxxxxxxxxxxxxxxxxxxxxxxxxxxxxxxxxxxxxxxxx


------------------------------------------------------------------------ <-- SCF
SCF loop      Energy           Fermi           Energy gain       Timer   <-- SCF
                               energy          per atom          (sec)   <-- SCF
------------------------------------------------------------------------ <-- SCF
Initial  -3.08936073E+003  0.00000000E+000                       232.53  <-- SCF
      1  -3.08937826E+003  5.49228112E+000   1.75338000E-003     245.01  <-- SCF
      2  -3.08937835E+003  5.49228106E+000   9.29674770E-006     255.65  <-- SCF
      3  -3.08937501E+003  5.61972295E+000  -3.33952869E-004     269.36  <-- SCF
      4  -3.08937066E+003  5.56354958E+000  -4.35888190E-004     282.97  <-- SCF
      5  -3.08937066E+003  5.56378883E+000   4.57668028E-007     290.54  <-- SCF
      6  -3.08937066E+003  5.56402994E+000   6.22436084E-008     298.14  <-- SCF
------------------------------------------------------------------------ <-- SCF
 
Final energy, E             =  -3089.370661187     eV
Final free energy (E-TS)    =  -3089.370661187     eV
(energies not corrected for finite basis set)
 
NB est. 0K energy (E-0.5TS)      =  -3089.370661187     eV
 

 ************************************** Forces **************************************
 *                                                                                  *
 *                           Cartesian components (eV/A)                            *
 * -------------------------------------------------------------------------------- *
 *                         x                    y                    z              *
 *                                                                                  *
 * O               1     -0.03755              0.00002             -0.00001         *
 * O               2      0.01875              0.03248             -0.00000         *
 * O               3      0.01879             -0.03249             -0.00001         *
 * O               4     -0.01875             -0.03251             -0.00002         *
 * O               5     -0.01878              0.03252              0.00002         *
 * O               6      0.03753             -0.00002              0.00001         *
 * Al              1     -0.00000              0.00001              0.01373         *
 * Al              2      0.00000             -0.00000              0.01374         *
 * Al              3      0.00000             -0.00001             -0.01374         *
 * Al              4      0.00000              0.00001             -0.01373         *
 *                                                                                  *
 ************************************************************************************

 ***************** Stress Tensor *****************
 *                                               *
 *          Cartesian components (GPa)           *
 * --------------------------------------------- *
 *             x             y             z     *
 *                                               *
 *  x     -0.949770     -0.000004      0.000012  *
 *  y     -0.000004     -0.949763      0.000008  *
 *  z      0.000012      0.000008     -0.569556  *
 *                                               *
 *  Pressure:    0.8230                          *
 *                                               *
 *************************************************
  
 +------------+-------------+-------------+-----------------+ <-- min LBFGS
 |    Step    |   lambda    |   F.delta'  |    enthalpy     | <-- min LBFGS
 +------------+-------------+-------------+-----------------+ <-- min LBFGS
 |  previous  |    0.000000 |    0.055295 |    -3089.368540 | <-- min LBFGS
 | trial step |    1.000000 |    0.029270 |    -3089.370661 | <-- min LBFGS
 +------------+-------------+-------------+-----------------+ <-- min LBFGS
  

--------------------------------------------------------------------------------
 LBFGS: improving iteration         1 with line minimization (lambda=  2.124671)
--------------------------------------------------------------------------------
 
+---------------- MEMORY AND SCRATCH DISK ESTIMATES PER PROCESS --------------+
|                                                     Memory          Disk    |
| Model and support data                              363.2 MB         0.0 MB |
| Electronic energy minimisation requirements          98.5 MB         0.0 MB |
| Geometry minimisation requirements                  126.6 MB         0.0 MB |
|                                               ----------------------------- |
| Approx. total storage required per process          588.2 MB         0.0 MB |
|                                                                             |
| Requirements will fluctuate during execution and may exceed these estimates |
+-----------------------------------------------------------------------------+
 

                           -------------------------------
                                      Unit Cell
                           -------------------------------
        Real Lattice(A)              Reciprocal Lattice(1/A)
     2.3861289     1.3776320     4.3383470        1.316606400   0.760143021   0.482763435
    -2.3861290     1.3776321     4.3383470       -1.316606372   0.760142976   0.482763429
     0.0000000    -2.7552648     4.3383469       -0.000000025  -1.520286040   0.482763324

                       Lattice parameters(A)       Cell Angles
                    a =      5.139332          alpha =   55.328274
                    b =      5.139332          beta  =   55.328272
                    c =      5.139332          gamma =   55.328271

                Current cell volume =            85.566301 A**3
                            density =             2.383211 amu/A**3
                                    =             3.957415 g/cm^3

                           -------------------------------
                                     Cell Contents
                           -------------------------------

            xxxxxxxxxxxxxxxxxxxxxxxxxxxxxxxxxxxxxxxxxxxxxxxxxxxxxxxxxxxxxxxxx
            x  Element         Atom        Fractional coordinates of atoms  x
            x                 Number           u          v          w      x
            x---------------------------------------------------------------x
            x  O                 1         0.556184   0.943816   0.250000   x
            x  O                 2         0.943816   0.250000   0.556184   x
            x  O                 3         0.250000   0.556184   0.943816   x
            x  O                 4         0.056184   0.750000   0.443816   x
            x  O                 5         0.750000   0.443816   0.056184   x
            x  O                 6         0.443816   0.056184   0.750000   x
            x  Al                1         0.147916   0.147916   0.147916   x
            x  Al                2         0.647916   0.647916   0.647916   x
            x  Al                3         0.852084   0.852084   0.852084   x
            x  Al                4         0.352084   0.352084   0.352084   x
            xxxxxxxxxxxxxxxxxxxxxxxxxxxxxxxxxxxxxxxxxxxxxxxxxxxxxxxxxxxxxxxxx


------------------------------------------------------------------------ <-- SCF
SCF loop      Energy           Fermi           Energy gain       Timer   <-- SCF
                               energy          per atom          (sec)   <-- SCF
------------------------------------------------------------------------ <-- SCF
Initial  -3.08935893E+003  0.00000000E+000                       335.87  <-- SCF
      1  -3.08938098E+003  5.45035800E+000   2.20411066E-003     348.22  <-- SCF
      2  -3.08938109E+003  5.45035793E+000   1.18721146E-005     359.10  <-- SCF
      3  -3.08937693E+003  5.59278210E+000  -4.16047277E-004     372.74  <-- SCF
      4  -3.08937141E+003  5.52935658E+000  -5.52347223E-004     386.45  <-- SCF
      5  -3.08937142E+003  5.52962072E+000   5.88103689E-007     394.00  <-- SCF
      6  -3.08937142E+003  5.52989022E+000   7.95517432E-008     401.46  <-- SCF
------------------------------------------------------------------------ <-- SCF
 
Final energy, E             =  -3089.371416560     eV
Final free energy (E-TS)    =  -3089.371416560     eV
(energies not corrected for finite basis set)
 
NB est. 0K energy (E-0.5TS)      =  -3089.371416560     eV
 

 ************************************** Forces **************************************
 *                                                                                  *
 *                           Cartesian components (eV/A)                            *
 * -------------------------------------------------------------------------------- *
 *                         x                    y                    z              *
 *                                                                                  *
 * O               1     -0.03782              0.00001             -0.00000         *
 * O               2      0.01889              0.03271              0.00001         *
 * O               3      0.01892             -0.03274             -0.00001         *
 * O               4     -0.01888             -0.03271             -0.00002         *
 * O               5     -0.01890              0.03275              0.00002         *
 * O               6      0.03779             -0.00002             -0.00001         *
 * Al              1     -0.00000              0.00000              0.00632         *
 * Al              2      0.00000             -0.00001              0.00632         *
 * Al              3      0.00000             -0.00001             -0.00631         *
 * Al              4      0.00000              0.00001             -0.00631         *
 *                                                                                  *
 ************************************************************************************

 ***************** Stress Tensor *****************
 *                                               *
 *          Cartesian components (GPa)           *
 * --------------------------------------------- *
 *             x             y             z     *
 *                                               *
 *  x      0.009669      0.000012     -0.000020  *
 *  y      0.000012      0.009592     -0.000007  *
 *  z     -0.000020     -0.000007      0.144363  *
 *                                               *
 *  Pressure:   -0.0545                          *
 *                                               *
 *************************************************
  
 +------------+-------------+-------------+-----------------+ <-- min LBFGS
 |    Step    |   lambda    |   F.delta'  |    enthalpy     | <-- min LBFGS
 +------------+-------------+-------------+-----------------+ <-- min LBFGS
 |  previous  |    0.000000 |    0.055295 |    -3089.368540 | <-- min LBFGS
 | trial step |    1.000000 |    0.029270 |    -3089.370661 | <-- min LBFGS
 |  line step |    2.124671 |   -0.000639 |    -3089.371416 | <-- min LBFGS
 +------------+-------------+-------------+-----------------+ <-- min LBFGS
  
 LBFGS: finished iteration     1 with enthalpy= -3.08937142E+003 eV
  
 +-----------+-----------------+-----------------+------------+-----+ <-- LBFGS
 | Parameter |      value      |    tolerance    |    units   | OK? | <-- LBFGS
 +-----------+-----------------+-----------------+------------+-----+ <-- LBFGS
 |  dE/ion   |   2.876188E-004 |   1.000000E-005 |         eV | No  | <-- LBFGS
 |  |F|max   |   3.782275E-002 |   1.000000E-002 |       eV/A | No  | <-- LBFGS
 |  |dR|max  |   3.630947E-004 |   1.000000E-003 |          A | Yes | <-- LBFGS
 |   Smax    |   1.443632E-001 |   1.000000E-001 |        GPa | No  | <-- LBFGS
 +-----------+-----------------+-----------------+------------+-----+ <-- LBFGS
  

================================================================================
 Starting LBFGS iteration          2 ...
================================================================================
  
 +------------+-------------+-------------+-----------------+ <-- min LBFGS
 |    Step    |   lambda    |   F.delta'  |    enthalpy     | <-- min LBFGS
 +------------+-------------+-------------+-----------------+ <-- min LBFGS
 |  previous  |    0.000000 |    0.011183 |    -3089.371416 | <-- min LBFGS
 +------------+-------------+-------------+-----------------+ <-- min LBFGS
  

--------------------------------------------------------------------------------
 LBFGS: starting iteration         2 with trial guess (lambda=  1.000000)
--------------------------------------------------------------------------------

                           -------------------------------
                                      Unit Cell
                           -------------------------------
        Real Lattice(A)              Reciprocal Lattice(1/A)
     2.3861258     1.3776303     4.3379476        1.316608151   0.760144002   0.482807870
    -2.3861258     1.3776304     4.3379475       -1.316608123   0.760143936   0.482807898
     0.0000001    -2.7552612     4.3379474       -0.000000043  -1.520287987   0.482807786

                       Lattice parameters(A)       Cell Angles
                    a =      5.138993          alpha =   55.332161
                    b =      5.138993          beta  =   55.332158
                    c =      5.138993          gamma =   55.332156

                Current cell volume =            85.558199 A**3
                            density =             2.383437 amu/A**3
                                    =             3.957790 g/cm^3

                           -------------------------------
                                     Cell Contents
                           -------------------------------

            xxxxxxxxxxxxxxxxxxxxxxxxxxxxxxxxxxxxxxxxxxxxxxxxxxxxxxxxxxxxxxxxx
            x  Element         Atom        Fractional coordinates of atoms  x
            x                 Number           u          v          w      x
            x---------------------------------------------------------------x
            x  O                 1         0.556146   0.943854   0.250000   x
            x  O                 2         0.943854   0.250000   0.556146   x
            x  O                 3         0.250000   0.556146   0.943854   x
            x  O                 4         0.056146   0.750000   0.443854   x
            x  O                 5         0.750000   0.443854   0.056146   x
            x  O                 6         0.443854   0.056146   0.750000   x
            x  Al                1         0.147918   0.147918   0.147918   x
            x  Al                2         0.647918   0.647918   0.647918   x
            x  Al                3         0.852082   0.852082   0.852082   x
            x  Al                4         0.352082   0.352082   0.352082   x
            xxxxxxxxxxxxxxxxxxxxxxxxxxxxxxxxxxxxxxxxxxxxxxxxxxxxxxxxxxxxxxxxx


------------------------------------------------------------------------ <-- SCF
SCF loop      Energy           Fermi           Energy gain       Timer   <-- SCF
                               energy          per atom          (sec)   <-- SCF
------------------------------------------------------------------------ <-- SCF
Initial  -3.08937117E+003  0.00000000E+000                       439.11  <-- SCF
      1  -3.08937156E+003  5.53151361E+000   3.88390289E-005     450.44  <-- SCF
      2  -3.08937157E+003  5.53151360E+000   4.77981533E-007     457.97  <-- SCF
      3  -3.08937145E+003  5.52884111E+000  -1.14544253E-005     466.27  <-- SCF
      4  -3.08937146E+003  5.53096111E+000   2.72856341E-007     473.92  <-- SCF
      5  -3.08937146E+003  5.53081050E+000   3.62761434E-007     481.42  <-- SCF
------------------------------------------------------------------------ <-- SCF
 
Final energy, E             =  -3089.371459048     eV
Final free energy (E-TS)    =  -3089.371459048     eV
(energies not corrected for finite basis set)
 
NB est. 0K energy (E-0.5TS)      =  -3089.371459048     eV
 

 ************************************** Forces **************************************
 *                                                                                  *
 *                           Cartesian components (eV/A)                            *
 * -------------------------------------------------------------------------------- *
 *                         x                    y                    z              *
 *                                                                                  *
 * O               1     -0.06187             -0.00002             -0.00001         *
 * O               2      0.03095              0.05360             -0.00001         *
 * O               3      0.03096             -0.05360             -0.00000         *
 * O               4     -0.03101             -0.05370              0.00000         *
 * O               5     -0.03103              0.05375              0.00000         *
 * O               6      0.06200             -0.00002             -0.00001         *
 * Al              1     -0.00001              0.00000              0.00744         *
 * Al              2     -0.00001             -0.00001              0.00744         *
 * Al              3      0.00000             -0.00001             -0.00743         *
 * Al              4     -0.00000              0.00000             -0.00743         *
 *                                                                                  *
 ************************************************************************************

 ***************** Stress Tensor *****************
 *                                               *
 *          Cartesian components (GPa)           *
 * --------------------------------------------- *
 *             x             y             z     *
 *                                               *
 *  x     -0.053301      0.000035      0.000023  *
 *  y      0.000035     -0.053140      0.000077  *
 *  z      0.000023      0.000077      0.048941  *
 *                                               *
 *  Pressure:    0.0192                          *
 *                                               *
 *************************************************
  
 +------------+-------------+-------------+-----------------+ <-- min LBFGS
 |    Step    |   lambda    |   F.delta'  |    enthalpy     | <-- min LBFGS
 +------------+-------------+-------------+-----------------+ <-- min LBFGS
 |  previous  |    0.000000 |    0.011183 |    -3089.371416 | <-- min LBFGS
 | trial step |    1.000000 |    0.016117 |    -3089.371459 | <-- min LBFGS
 +------------+-------------+-------------+-----------------+ <-- min LBFGS
  

--------------------------------------------------------------------------------
 LBFGS: improving iteration         2 with line minimization (lambda= -2.266910)
--------------------------------------------------------------------------------

                           -------------------------------
                                      Unit Cell
                           -------------------------------
        Real Lattice(A)              Reciprocal Lattice(1/A)
     2.3861360     1.3776360     4.3392524        1.316602432   0.760140799   0.482662736
    -2.3861363     1.3776360     4.3392526       -1.316602401   0.760140801   0.482662651
    -0.0000001    -2.7552728     4.3392524        0.000000016  -1.520281627   0.482662561

                       Lattice parameters(A)       Cell Angles
                    a =      5.140101          alpha =   55.319464
                    b =      5.140101          beta  =   55.319465
                    c =      5.140101          gamma =   55.319468

                Current cell volume =            85.584667 A**3
                            density =             2.382700 amu/A**3
                                    =             3.956566 g/cm^3

                           -------------------------------
                                     Cell Contents
                           -------------------------------

            xxxxxxxxxxxxxxxxxxxxxxxxxxxxxxxxxxxxxxxxxxxxxxxxxxxxxxxxxxxxxxxxx
            x  Element         Atom        Fractional coordinates of atoms  x
            x                 Number           u          v          w      x
            x---------------------------------------------------------------x
            x  O                 1         0.556270   0.943730   0.250000   x
            x  O                 2         0.943730   0.250000   0.556270   x
            x  O                 3         0.250000   0.556270   0.943730   x
            x  O                 4         0.056270   0.750000   0.443730   x
            x  O                 5         0.750000   0.443730   0.056270   x
            x  O                 6         0.443730   0.056270   0.750000   x
            x  Al                1         0.147911   0.147911   0.147911   x
            x  Al                2         0.647911   0.647911   0.647910   x
            x  Al                3         0.852090   0.852090   0.852089   x
            x  Al                4         0.352089   0.352089   0.352089   x
            xxxxxxxxxxxxxxxxxxxxxxxxxxxxxxxxxxxxxxxxxxxxxxxxxxxxxxxxxxxxxxxxx


------------------------------------------------------------------------ <-- SCF
SCF loop      Energy           Fermi           Energy gain       Timer   <-- SCF
                               energy          per atom          (sec)   <-- SCF
------------------------------------------------------------------------ <-- SCF
Initial  -3.08936817E+003  0.00000000E+000                       520.41  <-- SCF
      1  -3.08937242E+003  5.52694388E+000   4.25124869E-004     532.39  <-- SCF
      2  -3.08937248E+003  5.52693866E+000   5.41108594E-006     542.19  <-- SCF
      3  -3.08937133E+003  5.53447133E+000  -1.15182528E-004     555.42  <-- SCF
      4  -3.08937128E+003  5.52633226E+000  -4.26951254E-006     563.55  <-- SCF
      5  -3.08937129E+003  5.52707402E+000   4.54404227E-007     571.02  <-- SCF
------------------------------------------------------------------------ <-- SCF
 
Final energy, E             =  -3089.371288186     eV
Final free energy (E-TS)    =  -3089.371288186     eV
(energies not corrected for finite basis set)
 
NB est. 0K energy (E-0.5TS)      =  -3089.371288186     eV
 

 ************************************** Forces **************************************
 *                                                                                  *
 *                           Cartesian components (eV/A)                            *
 * -------------------------------------------------------------------------------- *
 *                         x                    y                    z              *
 *                                                                                  *
 * O               1     -0.02537             -0.00000              0.00002         *
 * O               2      0.01269              0.02203             -0.00003         *
 * O               3      0.01264             -0.02194             -0.00000         *
 * O               4     -0.01270             -0.02204              0.00003         *
 * O               5     -0.01267              0.02194             -0.00001         *
 * O               6      0.02541             -0.00001             -0.00002         *
 * Al              1     -0.00000              0.00000              0.00912         *
 * Al              2      0.00001             -0.00000              0.00912         *
 * Al              3      0.00001              0.00000             -0.00911         *
 * Al              4      0.00000              0.00001             -0.00911         *
 *                                                                                  *
 ************************************************************************************

 ***************** Stress Tensor *****************
 *                                               *
 *          Cartesian components (GPa)           *
 * --------------------------------------------- *
 *             x             y             z     *
 *                                               *
 *  x      0.145720      0.000008      0.000013  *
 *  y      0.000008      0.145650     -0.000030  *
 *  z      0.000013     -0.000030      0.311089  *
 *                                               *
 *  Pressure:   -0.2008                          *
 *                                               *
 *************************************************
  
 +------------+-------------+-------------+-----------------+ <-- min LBFGS
 |    Step    |   lambda    |   F.delta'  |    enthalpy     | <-- min LBFGS
 +------------+-------------+-------------+-----------------+ <-- min LBFGS
 |  previous  |    0.000000 |    0.011183 |    -3089.371416 | <-- min LBFGS
 | trial step |    1.000000 |    0.016117 |    -3089.371459 | <-- min LBFGS
 |  line step |   -2.266910 |    0.010101 |    -3089.371288 | <-- min LBFGS
 +------------+-------------+-------------+-----------------+ <-- min LBFGS
  

--------------------------------------------------------------------------------
 LBFGS: improving iteration         2 with quad minimization (lambda=-10.976784)
--------------------------------------------------------------------------------
 
+---------------- MEMORY AND SCRATCH DISK ESTIMATES PER PROCESS --------------+
|                                                     Memory          Disk    |
| Model and support data                              363.2 MB         0.0 MB |
| Electronic energy minimisation requirements          98.5 MB         0.0 MB |
| Geometry minimisation requirements                  126.6 MB         0.0 MB |
|                                               ----------------------------- |
| Approx. total storage required per process          588.4 MB         0.0 MB |
|                                                                             |
| Requirements will fluctuate during execution and may exceed these estimates |
+-----------------------------------------------------------------------------+
 

                           -------------------------------
                                      Unit Cell
                           -------------------------------
        Real Lattice(A)              Reciprocal Lattice(1/A)
     2.3861633     1.3776513     4.3427314        1.316587184   0.760132262   0.482276225
    -2.3861644     1.3776510     4.3427321       -1.316587146   0.760132442   0.482275838
    -0.0000008    -2.7553037     4.3427318        0.000000175  -1.520264671   0.482275802

                       Lattice parameters(A)       Cell Angles
                    a =      5.143055          alpha =   55.285637
                    b =      5.143056          beta  =   55.285650
                    c =      5.143055          gamma =   55.285666

                Current cell volume =            85.655236 A**3
                            density =             2.380737 amu/A**3
                                    =             3.953306 g/cm^3

                           -------------------------------
                                     Cell Contents
                           -------------------------------

            xxxxxxxxxxxxxxxxxxxxxxxxxxxxxxxxxxxxxxxxxxxxxxxxxxxxxxxxxxxxxxxxx
            x  Element         Atom        Fractional coordinates of atoms  x
            x                 Number           u          v          w      x
            x---------------------------------------------------------------x
            x  O                 1         0.556600   0.943400   0.250000   x
            x  O                 2         0.943401   0.250000   0.556599   x
            x  O                 3         0.250000   0.556600   0.943400   x
            x  O                 4         0.056599   0.750000   0.443401   x
            x  O                 5         0.750000   0.443400   0.056600   x
            x  O                 6         0.443401   0.056600   0.750000   x
            x  Al                1         0.147890   0.147890   0.147890   x
            x  Al                2         0.647890   0.647890   0.647890   x
            x  Al                3         0.852110   0.852110   0.852109   x
            x  Al                4         0.352110   0.352110   0.352110   x
            xxxxxxxxxxxxxxxxxxxxxxxxxxxxxxxxxxxxxxxxxxxxxxxxxxxxxxxxxxxxxxxxx


------------------------------------------------------------------------ <-- SCF
SCF loop      Energy           Fermi           Energy gain       Timer   <-- SCF
                               energy          per atom          (sec)   <-- SCF
------------------------------------------------------------------------ <-- SCF
Initial  -3.08934881E+003  0.00000000E+000                       610.46  <-- SCF
      1  -3.08937850E+003  5.51577707E+000   2.96885463E-003     622.29  <-- SCF
      2  -3.08937869E+003  5.51577575E+000   1.89435379E-005     633.70  <-- SCF
      3  -3.08937083E+003  5.53920633E+000  -7.86026874E-004     647.46  <-- SCF
      4  -3.08937057E+003  5.51475051E+000  -2.56430918E-005     661.42  <-- SCF
      5  -3.08937047E+003  5.52189016E+000  -1.03896228E-005     669.88  <-- SCF
      6  -3.08937047E+003  5.52433667E+000   7.92859586E-007     677.31  <-- SCF
      7  -3.08937048E+003  5.52434205E+000   1.09553035E-006     684.72  <-- SCF
------------------------------------------------------------------------ <-- SCF
 
Final energy, E             =  -3089.370484966     eV
Final free energy (E-TS)    =  -3089.370484966     eV
(energies not corrected for finite basis set)
 
NB est. 0K energy (E-0.5TS)      =  -3089.370484966     eV
 

 ************************************** Forces **************************************
 *                                                                                  *
 *                           Cartesian components (eV/A)                            *
 * -------------------------------------------------------------------------------- *
 *                         x                    y                    z              *
 *                                                                                  *
 * O               1     -0.07305              0.00003             -0.00000         *
 * O               2      0.03650              0.06323              0.00002         *
 * O               3      0.03654             -0.06323              0.00001         *
 * O               4     -0.03650             -0.06322             -0.00001         *
 * O               5     -0.03649              0.06327             -0.00001         *
 * O               6      0.07299             -0.00006             -0.00001         *
 * Al              1     -0.00001              0.00002              0.02389         *
 * Al              2      0.00001             -0.00002              0.02390         *
 * Al              3      0.00001             -0.00003             -0.02391         *
 * Al              4     -0.00001              0.00000             -0.02390         *
 *                                                                                  *
 ************************************************************************************

 ***************** Stress Tensor *****************
 *                                               *
 *          Cartesian components (GPa)           *
 * --------------------------------------------- *
 *             x             y             z     *
 *                                               *
 *  x      0.234897      0.000036     -0.000036  *
 *  y      0.000036      0.234677     -0.000057  *
 *  z     -0.000036     -0.000057      0.675228  *
 *                                               *
 *  Pressure:   -0.3816                          *
 *                                               *
 *************************************************
  
 +------------+-------------+-------------+-----------------+ <-- min LBFGS
 |    Step    |   lambda    |   F.delta'  |    enthalpy     | <-- min LBFGS
 +------------+-------------+-------------+-----------------+ <-- min LBFGS
 |  previous  |    0.000000 |    0.011183 |    -3089.371416 | <-- min LBFGS
 | trial step |    1.000000 |    0.016117 |    -3089.371459 | <-- min LBFGS
 |  line step |   -2.266910 |    0.010101 |    -3089.371288 | <-- min LBFGS
 |  quad step |  -10.976784 |    0.026461 |    -3089.370485 | <-- min LBFGS
 +------------+-------------+-------------+-----------------+ <-- min LBFGS
  
 LBFGS: reverting to earlier configuration

                           -------------------------------
                                      Unit Cell
                           -------------------------------
        Real Lattice(A)              Reciprocal Lattice(1/A)
     2.3861360     1.3776360     4.3392524        1.316602432   0.760140799   0.482662736
    -2.3861363     1.3776360     4.3392526       -1.316602401   0.760140801   0.482662651
    -0.0000001    -2.7552728     4.3392524        0.000000016  -1.520281627   0.482662561

                       Lattice parameters(A)       Cell Angles
                    a =      5.140101          alpha =   55.319464
                    b =      5.140101          beta  =   55.319465
                    c =      5.140101          gamma =   55.319468

                Current cell volume =            85.584667 A**3
                            density =             2.382700 amu/A**3
                                    =             3.956566 g/cm^3

                           -------------------------------
                                     Cell Contents
                           -------------------------------

            xxxxxxxxxxxxxxxxxxxxxxxxxxxxxxxxxxxxxxxxxxxxxxxxxxxxxxxxxxxxxxxxx
            x  Element         Atom        Fractional coordinates of atoms  x
            x                 Number           u          v          w      x
            x---------------------------------------------------------------x
            x  O                 1         0.556270   0.943730   0.250000   x
            x  O                 2         0.943730   0.250000   0.556270   x
            x  O                 3         0.250000   0.556270   0.943730   x
            x  O                 4         0.056270   0.750000   0.443730   x
            x  O                 5         0.750000   0.443730   0.056270   x
            x  O                 6         0.443730   0.056270   0.750000   x
            x  Al                1         0.147911   0.147911   0.147911   x
            x  Al                2         0.647911   0.647911   0.647910   x
            x  Al                3         0.852090   0.852090   0.852089   x
            x  Al                4         0.352089   0.352089   0.352089   x
            xxxxxxxxxxxxxxxxxxxxxxxxxxxxxxxxxxxxxxxxxxxxxxxxxxxxxxxxxxxxxxxxx


 LBFGS: updated estimated <frequency>  =1793.63829 cm-1
 LBFGS: updated estimated bulk modulus = 246.47284 GPa
 LBFGS: finished iteration     2 with enthalpy= -3.08937129E+003 eV
  
 +-----------+-----------------+-----------------+------------+-----+ <-- LBFGS
 | Parameter |      value      |    tolerance    |    units   | OK? | <-- LBFGS
 +-----------+-----------------+-----------------+------------+-----+ <-- LBFGS
 |  dE/ion   |   1.278090E-005 |   1.000000E-005 |         eV | No  | <-- LBFGS
 |  |F|max   |   2.543675E-002 |   1.000000E-002 |       eV/A | No  | <-- LBFGS
 |  |dR|max  |   4.100539E-004 |   1.000000E-003 |          A | Yes | <-- LBFGS
 |   Smax    |   3.110885E-001 |   1.000000E-001 |        GPa | No  | <-- LBFGS
 +-----------+-----------------+-----------------+------------+-----+ <-- LBFGS
  

================================================================================
 Starting LBFGS iteration          3 ...
================================================================================
  
 +------------+-------------+-------------+-----------------+ <-- min LBFGS
 |    Step    |   lambda    |   F.delta'  |    enthalpy     | <-- min LBFGS
 +------------+-------------+-------------+-----------------+ <-- min LBFGS
 |  previous  |    0.000000 |    0.008481 |    -3089.371288 | <-- min LBFGS
 +------------+-------------+-------------+-----------------+ <-- min LBFGS
  

--------------------------------------------------------------------------------
 LBFGS: starting iteration         3 with trial guess (lambda=  1.000000)
--------------------------------------------------------------------------------

                           -------------------------------
                                      Unit Cell
                           -------------------------------
        Real Lattice(A)              Reciprocal Lattice(1/A)
     2.3856681     1.3773662     4.3374338        1.316860656   0.760289800   0.482865108
    -2.3856685     1.3773662     4.3374340       -1.316860592   0.760289771   0.482864978
    -0.0000002    -2.7547326     4.3374337        0.000000007  -1.520579656   0.482865000

                       Lattice parameters(A)       Cell Angles
                    a =      5.138276          alpha =   55.329018
                    b =      5.138277          beta  =   55.329019
                    c =      5.138276          gamma =   55.329016

                Current cell volume =            85.515259 A**3
                            density =             2.384634 amu/A**3
                                    =             3.959777 g/cm^3

                           -------------------------------
                                     Cell Contents
                           -------------------------------

            xxxxxxxxxxxxxxxxxxxxxxxxxxxxxxxxxxxxxxxxxxxxxxxxxxxxxxxxxxxxxxxxx
            x  Element         Atom        Fractional coordinates of atoms  x
            x                 Number           u          v          w      x
            x---------------------------------------------------------------x
            x  O                 1         0.556248   0.943752   0.250000   x
            x  O                 2         0.943752   0.250000   0.556247   x
            x  O                 3         0.250000   0.556248   0.943752   x
            x  O                 4         0.056248   0.750000   0.443752   x
            x  O                 5         0.750000   0.443752   0.056248   x
            x  O                 6         0.443752   0.056248   0.750000   x
            x  Al                1         0.147914   0.147913   0.147913   x
            x  Al                2         0.647914   0.647914   0.647913   x
            x  Al                3         0.852087   0.852087   0.852086   x
            x  Al                4         0.352087   0.352087   0.352086   x
            xxxxxxxxxxxxxxxxxxxxxxxxxxxxxxxxxxxxxxxxxxxxxxxxxxxxxxxxxxxxxxxxx


------------------------------------------------------------------------ <-- SCF
SCF loop      Energy           Fermi           Energy gain       Timer   <-- SCF
                               energy          per atom          (sec)   <-- SCF
------------------------------------------------------------------------ <-- SCF
Initial  -3.08937058E+003  0.00000000E+000                       725.60  <-- SCF
      1  -3.08937186E+003  5.55222473E+000   1.27782337E-004     738.14  <-- SCF
      2  -3.08937186E+003  5.55222472E+000   5.89896533E-007     745.67  <-- SCF
      3  -3.08937161E+003  5.52320490E+000  -2.53276928E-005     759.49  <-- SCF
      4  -3.08937135E+003  5.53732372E+000  -2.58622124E-005     771.58  <-- SCF
      5  -3.08937135E+003  5.53731214E+000   7.02899234E-010     779.05  <-- SCF
      6  -3.08937135E+003  5.53724276E+000   8.44136466E-009     786.33  <-- SCF
------------------------------------------------------------------------ <-- SCF
 
Final energy, E             =  -3089.371351072     eV
Final free energy (E-TS)    =  -3089.371351072     eV
(energies not corrected for finite basis set)
 
NB est. 0K energy (E-0.5TS)      =  -3089.371351072     eV
 

 ************************************** Forces **************************************
 *                                                                                  *
 *                           Cartesian components (eV/A)                            *
 * -------------------------------------------------------------------------------- *
 *                         x                    y                    z              *
 *                                                                                  *
 * O               1     -0.04263              0.00001              0.00000         *
 * O               2      0.02131              0.03690             -0.00000         *
 * O               3      0.02132             -0.03692             -0.00000         *
 * O               4     -0.02131             -0.03691             -0.00000         *
 * O               5     -0.02131              0.03692              0.00000         *
 * O               6      0.04262             -0.00001              0.00000         *
 * Al              1     -0.00000              0.00001              0.00814         *
 * Al              2      0.00000             -0.00001              0.00814         *
 * Al              3      0.00000             -0.00001             -0.00814         *
 * Al              4     -0.00000              0.00001             -0.00814         *
 *                                                                                  *
 ************************************************************************************

 ***************** Stress Tensor *****************
 *                                               *
 *          Cartesian components (GPa)           *
 * --------------------------------------------- *
 *             x             y             z     *
 *                                               *
 *  x     -0.084857      0.000000      0.000000  *
 *  y      0.000000     -0.084867      0.000008  *
 *  z      0.000000      0.000008      0.040265  *
 *                                               *
 *  Pressure:    0.0432                          *
 *                                               *
 *************************************************
  
 +------------+-------------+-------------+-----------------+ <-- min LBFGS
 |    Step    |   lambda    |   F.delta'  |    enthalpy     | <-- min LBFGS
 +------------+-------------+-------------+-----------------+ <-- min LBFGS
 |  previous  |    0.000000 |    0.008481 |    -3089.371288 | <-- min LBFGS
 | trial step |    1.000000 |    0.001398 |    -3089.371351 | <-- min LBFGS
 +------------+-------------+-------------+-----------------+ <-- min LBFGS
  
 LBFGS: finished iteration     3 with enthalpy= -3.08937135E+003 eV
  
 +-----------+-----------------+-----------------+------------+-----+ <-- LBFGS
 | Parameter |      value      |    tolerance    |    units   | OK? | <-- LBFGS
 +-----------+-----------------+-----------------+------------+-----+ <-- LBFGS
 |  dE/ion   |   6.334885E-006 |   1.000000E-005 |         eV | Yes | <-- LBFGS
 |  |F|max   |   4.263485E-002 |   1.000000E-002 |       eV/A | No  | <-- LBFGS
 |  |dR|max  |   1.054148E-004 |   1.000000E-003 |          A | Yes | <-- LBFGS
 |   Smax    |   8.486684E-002 |   1.000000E-001 |        GPa | Yes | <-- LBFGS
 +-----------+-----------------+-----------------+------------+-----+ <-- LBFGS
  

================================================================================
 Starting LBFGS iteration          4 ...
================================================================================
  
 +------------+-------------+-------------+-----------------+ <-- min LBFGS
 |    Step    |   lambda    |   F.delta'  |    enthalpy     | <-- min LBFGS
 +------------+-------------+-------------+-----------------+ <-- min LBFGS
 |  previous  |    0.000000 |    0.007520 |    -3089.371351 | <-- min LBFGS
 +------------+-------------+-------------+-----------------+ <-- min LBFGS
  

--------------------------------------------------------------------------------
 LBFGS: starting iteration         4 with trial guess (lambda=  1.000000)
--------------------------------------------------------------------------------

                           -------------------------------
                                      Unit Cell
                           -------------------------------
        Real Lattice(A)              Reciprocal Lattice(1/A)
     2.3856826     1.3773748     4.3359414        1.316852604   0.760285088   0.483031304
    -2.3856832     1.3773748     4.3359417       -1.316852518   0.760285039   0.483031145
    -0.0000002    -2.7547497     4.3359413        0.000000001  -1.520570232   0.483031214

                       Lattice parameters(A)       Cell Angles
                    a =      5.137025          alpha =   55.344014
                    b =      5.137026          beta  =   55.344015
                    c =      5.137026          gamma =   55.344009

                Current cell volume =            85.486891 A**3
                            density =             2.385425 amu/A**3
                                    =             3.961091 g/cm^3

                           -------------------------------
                                     Cell Contents
                           -------------------------------

            xxxxxxxxxxxxxxxxxxxxxxxxxxxxxxxxxxxxxxxxxxxxxxxxxxxxxxxxxxxxxxxxx
            x  Element         Atom        Fractional coordinates of atoms  x
            x                 Number           u          v          w      x
            x---------------------------------------------------------------x
            x  O                 1         0.556189   0.943811   0.250000   x
            x  O                 2         0.943811   0.250000   0.556188   x
            x  O                 3         0.250000   0.556189   0.943811   x
            x  O                 4         0.056189   0.750000   0.443811   x
            x  O                 5         0.750000   0.443811   0.056189   x
            x  O                 6         0.443811   0.056189   0.750000   x
            x  Al                1         0.147919   0.147919   0.147918   x
            x  Al                2         0.647919   0.647919   0.647918   x
            x  Al                3         0.852082   0.852082   0.852081   x
            x  Al                4         0.352082   0.352082   0.352081   x
            xxxxxxxxxxxxxxxxxxxxxxxxxxxxxxxxxxxxxxxxxxxxxxxxxxxxxxxxxxxxxxxxx


------------------------------------------------------------------------ <-- SCF
SCF loop      Energy           Fermi           Energy gain       Timer   <-- SCF
                               energy          per atom          (sec)   <-- SCF
------------------------------------------------------------------------ <-- SCF
Initial  -3.08937050E+003  0.00000000E+000                       825.78  <-- SCF
      1  -3.08937175E+003  5.54509529E+000   1.25130607E-004     838.40  <-- SCF
      2  -3.08937175E+003  5.54509524E+000   3.13905239E-007     845.81  <-- SCF
      3  -3.08937145E+003  5.53477183E+000  -3.02403931E-005     859.39  <-- SCF
      4  -3.08937139E+003  5.54213065E+000  -5.87461184E-006     866.88  <-- SCF
      5  -3.08937140E+003  5.54290369E+000   7.95931894E-007     874.10  <-- SCF
------------------------------------------------------------------------ <-- SCF
 
Final energy, E             =  -3089.371400816     eV
Final free energy (E-TS)    =  -3089.371400816     eV
(energies not corrected for finite basis set)
 
NB est. 0K energy (E-0.5TS)      =  -3089.371400816     eV
 

 ************************************** Forces **************************************
 *                                                                                  *
 *                           Cartesian components (eV/A)                            *
 * -------------------------------------------------------------------------------- *
 *                         x                    y                    z              *
[...]
 +-----------+-----------------+-----------------+------------+-----+ <-- LBFGS
 |  dE/ion   |   1.852739E-006 |   1.000000E-005 |         eV | Yes | <-- LBFGS
 |  |F|max   |   1.083520E-002 |   1.000000E-002 |       eV/A | No  | <-- LBFGS
 |  |dR|max  |   2.196540E-004 |   1.000000E-003 |          A | Yes | <-- LBFGS
 |   Smax    |   6.642760E-002 |   1.000000E-001 |        GPa | Yes | <-- LBFGS
 +-----------+-----------------+-----------------+------------+-----+ <-- LBFGS
  

================================================================================
 Starting LBFGS iteration         14 ...
================================================================================
  
 +------------+-------------+-------------+-----------------+ <-- min LBFGS
 |    Step    |   lambda    |   F.delta'  |    enthalpy     | <-- min LBFGS
 +------------+-------------+-------------+-----------------+ <-- min LBFGS
 |  previous  |    0.000000 |    0.002789 |    -3089.371563 | <-- min LBFGS
 +------------+-------------+-------------+-----------------+ <-- min LBFGS
  

--------------------------------------------------------------------------------
 LBFGS: starting iteration        14 with trial guess (lambda=  1.000000)
--------------------------------------------------------------------------------

                           -------------------------------
                                      Unit Cell
                           -------------------------------
        Real Lattice(A)              Reciprocal Lattice(1/A)
     2.3861699     1.3776562     4.3373641        1.316583424   0.760129501   0.482873111
    -2.3861710     1.3776550     4.3373651       -1.316583600   0.760130160   0.482872552
    -0.0000016    -2.7553130     4.3373648        0.000000483  -1.520259577   0.482872523

                       Lattice parameters(A)       Cell Angles
                    a =      5.138528          alpha =   55.338693
                    b =      5.138529          beta  =   55.338725
                    c =      5.138529          gamma =   55.338711

                Current cell volume =            85.549900 A**3
                            density =             2.383668 amu/A**3
                                    =             3.958174 g/cm^3

                           -------------------------------
                                     Cell Contents
                           -------------------------------

            xxxxxxxxxxxxxxxxxxxxxxxxxxxxxxxxxxxxxxxxxxxxxxxxxxxxxxxxxxxxxxxxx
            x  Element         Atom        Fractional coordinates of atoms  x
            x                 Number           u          v          w      x
            x---------------------------------------------------------------x
            x  O                 1         0.555642   0.944358   0.250000   x
            x  O                 2         0.944358   0.250000   0.555642   x
            x  O                 3         0.250000   0.555642   0.944358   x
            x  O                 4         0.055642   0.750000   0.444358   x
            x  O                 5         0.750000   0.444358   0.055642   x
            x  O                 6         0.444358   0.055642   0.750000   x
            x  Al                1         0.147894   0.147894   0.147894   x
            x  Al                2         0.647894   0.647894   0.647894   x
            x  Al                3         0.852106   0.852106   0.852106   x
            x  Al                4         0.352106   0.352106   0.352106   x
            xxxxxxxxxxxxxxxxxxxxxxxxxxxxxxxxxxxxxxxxxxxxxxxxxxxxxxxxxxxxxxxxx


------------------------------------------------------------------------ <-- SCF
SCF loop      Energy           Fermi           Energy gain       Timer   <-- SCF
                               energy          per atom          (sec)   <-- SCF
------------------------------------------------------------------------ <-- SCF
Initial  -3.08937086E+003  0.00000000E+000                      2074.69  <-- SCF
      1  -3.08937175E+003  5.52742027E+000   8.93640750E-005    2085.23  <-- SCF
      2  -3.08937176E+003  5.52741991E+000   1.29334016E-006    2092.35  <-- SCF
      3  -3.08937153E+003  5.52568508E+000  -2.34207357E-005    2103.08  <-- SCF
      4  -3.08937153E+003  5.52770281E+000   6.21545521E-008    2110.21  <-- SCF
      5  -3.08937153E+003  5.52725868E+000   1.69857879E-007    2117.35  <-- SCF
------------------------------------------------------------------------ <-- SCF
 
Final energy, E             =  -3089.371530462     eV
Final free energy (E-TS)    =  -3089.371530462     eV
(energies not corrected for finite basis set)
 
NB est. 0K energy (E-0.5TS)      =  -3089.371530462     eV
 

 ************************************** Forces **************************************
 *                                                                                  *
 *                           Cartesian components (eV/A)                            *
 * -------------------------------------------------------------------------------- *
 *                         x                    y                    z              *
 *                                                                                  *
 * O               1      0.00751             -0.00001             -0.00001         *
 * O               2     -0.00375             -0.00653              0.00003         *
 * O               3     -0.00374              0.00646             -0.00000         *
 * O               4      0.00373              0.00651             -0.00002         *
 * O               5      0.00373             -0.00644              0.00001         *
 * O               6     -0.00749              0.00001             -0.00000         *
 * Al              1      0.00001              0.00000              0.00047         *
 * Al              2     -0.00000              0.00001              0.00047         *
 * Al              3     -0.00000             -0.00000             -0.00048         *
 * Al              4      0.00000              0.00000             -0.00047         *
 *                                                                                  *
 ************************************************************************************

 ***************** Stress Tensor *****************
 *                                               *
 *          Cartesian components (GPa)           *
 * --------------------------------------------- *
 *             x             y             z     *
 *                                               *
 *  x     -0.058163      0.000072     -0.000036  *
 *  y      0.000072     -0.058025     -0.000035  *
 *  z     -0.000036     -0.000035      0.081196  *
 *                                               *
 *  Pressure:    0.0117                          *
 *                                               *
 *************************************************
  
 +------------+-------------+-------------+-----------------+ <-- min LBFGS
 |    Step    |   lambda    |   F.delta'  |    enthalpy     | <-- min LBFGS
 +------------+-------------+-------------+-----------------+ <-- min LBFGS
 |  previous  |    0.000000 |    0.002789 |    -3089.371563 | <-- min LBFGS
 | trial step |    1.000000 |   -0.002455 |    -3089.371530 | <-- min LBFGS
 +------------+-------------+-------------+-----------------+ <-- min LBFGS
  
 LBFGS: finished iteration    14 with enthalpy= -3.08937153E+003 eV
  
 +-----------+-----------------+-----------------+------------+-----+ <-- LBFGS
 | Parameter |      value      |    tolerance    |    units   | OK? | <-- LBFGS
 +-----------+-----------------+-----------------+------------+-----+ <-- LBFGS
 |  dE/ion   |   3.289600E-006 |   1.000000E-005 |         eV | Yes | <-- LBFGS
 |  |F|max   |   7.532996E-003 |   1.000000E-002 |       eV/A | Yes | <-- LBFGS
 |  |dR|max  |   2.992974E-004 |   1.000000E-003 |          A | Yes | <-- LBFGS
 |   Smax    |   8.119606E-002 |   1.000000E-001 |        GPa | Yes | <-- LBFGS
 +-----------+-----------------+-----------------+------------+-----+ <-- LBFGS
  
 LBFGS: Geometry optimization completed successfully.

================================================================================
 LBFGS: Final Configuration:
================================================================================

                           -------------------------------
                                      Unit Cell
                           -------------------------------
        Real Lattice(A)              Reciprocal Lattice(1/A)
     2.3861699     1.3776562     4.3373641        1.316583424   0.760129501   0.482873111
    -2.3861710     1.3776550     4.3373651       -1.316583600   0.760130160   0.482872552
    -0.0000016    -2.7553130     4.3373648        0.000000483  -1.520259577   0.482872523

                       Lattice parameters(A)       Cell Angles
                    a =      5.138528          alpha =   55.338693
                    b =      5.138529          beta  =   55.338725
                    c =      5.138529          gamma =   55.338711

                Current cell volume =            85.549900 A**3
                            density =             2.383668 amu/A**3
                                    =             3.958174 g/cm^3

                           -------------------------------
                                     Cell Contents
                           -------------------------------

            xxxxxxxxxxxxxxxxxxxxxxxxxxxxxxxxxxxxxxxxxxxxxxxxxxxxxxxxxxxxxxxxx
            x  Element         Atom        Fractional coordinates of atoms  x
            x                 Number           u          v          w      x
            x---------------------------------------------------------------x
            x  O                 1         0.555642   0.944358   0.250000   x
            x  O                 2         0.944358   0.250000   0.555642   x
            x  O                 3         0.250000   0.555642   0.944358   x
            x  O                 4         0.055642   0.750000   0.444358   x
            x  O                 5         0.750000   0.444358   0.055642   x
            x  O                 6         0.444358   0.055642   0.750000   x
            x  Al                1         0.147894   0.147894   0.147894   x
            x  Al                2         0.647894   0.647894   0.647894   x
            x  Al                3         0.852106   0.852106   0.852106   x
            x  Al                4         0.352106   0.352106   0.352106   x
            xxxxxxxxxxxxxxxxxxxxxxxxxxxxxxxxxxxxxxxxxxxxxxxxxxxxxxxxxxxxxxxxx


 LBFGS: Final Enthalpy     = -3.08937153E+003 eV
 LBFGS: Final <frequency>  =    1138.70800 cm-1
 LBFGS: Final bulk modulus =     608.95751 GPa

 ************************************** Forces **************************************
 *                                                                                  *
 *                           Cartesian components (eV/A)                            *
 * -------------------------------------------------------------------------------- *
 *                         x                    y                    z              *
 *                                                                                  *
 * O               1      0.00751             -0.00001             -0.00001         *
 * O               2     -0.00375             -0.00653              0.00003         *
 * O               3     -0.00374              0.00646             -0.00000         *
 * O               4      0.00373              0.00651             -0.00002         *
 * O               5      0.00373             -0.00644              0.00001         *
 * O               6     -0.00749              0.00001             -0.00000         *
 * Al              1      0.00001              0.00000              0.00047         *
 * Al              2     -0.00000              0.00001              0.00047         *
 * Al              3     -0.00000             -0.00000             -0.00048         *
 * Al              4      0.00000              0.00000             -0.00047         *
 *                                                                                  *
 ************************************************************************************

 ***************** Stress Tensor *****************
 *                                               *
 *          Cartesian components (GPa)           *
 * --------------------------------------------- *
 *             x             y             z     *
 *                                               *
 *  x     -0.058163      0.000072     -0.000036  *
 *  y      0.000072     -0.058025     -0.000035  *
 *  z     -0.000036     -0.000035      0.081196  *
 *                                               *
 *  Pressure:    0.0117                          *
 *                                               *
 *************************************************

 Pseudo atomic calculation performed for O 2s2 2p4

 Converged in 14 iterations to a total energy of -431.1372 eV

 Pseudo atomic calculation performed for Al 3s2 3p1

 Converged in 11 iterations to a total energy of -105.9172 eV
Charge spilling parameter for spin component 1 = 0.78%

            Orbital Populations       
     Ion    Atom   Orbital             Charge
  -------------------------------------------
      O     1      S                    1.833
      O     1      Px                   1.720
      O     1      Py                   1.754
      O     1      Pz                   1.743
      O     2      S                    1.833
      O     2      Px                   1.745
      O     2      Py                   1.728
      O     2      Pz                   1.743
      O     3      S                    1.833
      O     3      Px                   1.745
      O     3      Py                   1.728
      O     3      Pz                   1.743
      O     4      S                    1.833
      O     4      Px                   1.745
      O     4      Py                   1.728
      O     4      Pz                   1.743
      O     5      S                    1.833
      O     5      Px                   1.745
      O     5      Py                   1.728
      O     5      Pz                   1.743
      O     6      S                    1.833
      O     6      Px                   1.720
      O     6      Py                   1.754
      O     6      Pz                   1.743
     Al     1      S                    0.518
     Al     1      Px                   0.306
     Al     1      Py                   0.306
     Al     1      Pz                   0.298
     Al     2      S                    0.518
     Al     2      Px                   0.306
     Al     2      Py                   0.306
     Al     2      Pz                   0.298
     Al     3      S                    0.518
     Al     3      Px                   0.306
     Al     3      Py                   0.306
     Al     3      Pz                   0.298
     Al     4      S                    0.518
     Al     4      Px                   0.306
     Al     4      Py                   0.306
     Al     4      Pz                   0.298
  -------------------------------------------
                           Total:      48.000
  -------------------------------------------

     Atomic Populations (Mulliken)
     -----------------------------
Species          Ion     s      p      d      f     Total  Charge (e)
=====================================================================
  O               1     1.83   5.22   0.00   0.00   7.05    -1.05
  O               2     1.83   5.22   0.00   0.00   7.05    -1.05
  O               3     1.83   5.22   0.00   0.00   7.05    -1.05
  O               4     1.83   5.22   0.00   0.00   7.05    -1.05
  O               5     1.83   5.22   0.00   0.00   7.05    -1.05
  O               6     1.83   5.22   0.00   0.00   7.05    -1.05
  Al              1     0.52   0.91   0.00   0.00   1.43     1.57
  Al              2     0.52   0.91   0.00   0.00   1.43     1.57
  Al              3     0.52   0.91   0.00   0.00   1.43     1.57
  Al              4     0.52   0.91   0.00   0.00   1.43     1.57
=====================================================================

                 Bond                   Population      Length (A)
======================================================================
               O 5 -- Al 1                   0.36        1.86118
               O 2 -- Al 3                   0.36        1.86118
               O 2 -- Al 2                   0.36        1.86118
               O 4 -- Al 1                   0.36        1.86118
               O 4 -- Al 4                   0.36        1.86118
               O 1 -- Al 3                   0.36        1.86118
               O 3 -- Al 3                   0.36        1.86118
               O 3 -- Al 2                   0.36        1.86118
               O 6 -- Al 4                   0.36        1.86118
               O 6 -- Al 1                   0.36        1.86118
               O 1 -- Al 2                   0.36        1.86118
               O 5 -- Al 4                   0.36        1.86118
               O 1 -- Al 1                   0.26        1.97302
               O 6 -- Al 3                   0.26        1.97302
               O 3 -- Al 4                   0.26        1.97302
               O 5 -- Al 2                   0.26        1.97302
               O 5 -- Al 3                   0.26        1.97302
               O 3 -- Al 1                   0.26        1.97302
               O 2 -- Al 4                   0.26        1.97302
               O 4 -- Al 2                   0.26        1.97302
               O 6 -- Al 2                   0.26        1.97302
               O 1 -- Al 4                   0.26        1.97302
               O 2 -- Al 1                   0.26        1.97302
               O 4 -- Al 3                   0.26        1.97302
               O 1 -- O 3                   -0.17        2.52642
               O 5 -- O 6                   -0.17        2.52642
               O 4 -- O 5                   -0.17        2.52642
               O 2 -- O 3                   -0.17        2.52642
               O 4 -- O 6                   -0.17        2.52642
               O 1 -- O 2                   -0.17        2.52642
               O 1 -- O 6                   -0.16        2.62358
               O 2 -- O 4                   -0.16        2.62358
               O 3 -- O 5                   -0.16        2.62358
              Al 1 -- Al 4                  -0.52        2.65722
              Al 2 -- Al 3                  -0.52        2.65722
               O 1 -- O 4                   -0.10        2.73157
               O 2 -- O 6                   -0.10        2.73157
               O 3 -- O 4                   -0.10        2.73157
               O 2 -- O 5                   -0.10        2.73157
               O 1 -- O 5                   -0.10        2.73157
               O 3 -- O 6                   -0.10        2.73157
              Al 1 -- Al 3                  -0.65        2.79829
              Al 2 -- Al 4                  -0.65        2.79829
======================================================================


Writing analysis data to al2o3_xc-PBESOL_c-1200_k-5x5x5_geom.castep_bin

Writing model to al2o3_xc-PBESOL_c-1200_k-5x5x5_geom.check
 
 A BibTeX formatted list of references used in this run has been written to 
 al2o3_xc-PBESOL_c-1200_k-5x5x5_geom.bib
 
Initialisation time =      7.58 s
Calculation time    =   2153.30 s
Finalisation time   =      0.45 s
Total time          =   2161.33 s
Peak Memory Use     = 861356 kB
  
Overall parallel efficiency rating: Excellent (97%)                             
  
Data was distributed by:-
k-point (9-way); efficiency rating: Excellent (98%)                             
