 +-------------------------------------------------+
 |                                                 |
 |      CCC   AA    SSS  TTTTT  EEEEE  PPPP        |
 |     C     A  A  S       T    E      P   P       |
 |     C     AAAA   SS     T    EEE    PPPP        |
 |     C     A  A     S    T    E      P           |
 |      CCC  A  A  SSS     T    EEEEE  P           |
 |                                                 |
 +-------------------------------------------------+
 |                                                 |
 | Welcome to Academic Release CASTEP version 19.11|          
 | Ab Initio Total Energy Program                  |
 |                                                 |
 | Authors:                                        |
 | M. Segall, M. Probert, C. Pickard, P. Hasnip,   |
 | S. Clark, K. Refson, J. R. Yates, M. Payne      |
 |                                                 |
 | Contributors:                                   |
 | P. Lindan, P. Haynes, J. White, V. Milman,      |
 | N. Govind, M. Gibson, P. Tulip, V. Cocula,      |
 | B. Montanari, D. Quigley, M. Glover,            |
 | L. Bernasconi, A. Perlov, M. Plummer,           |
 | E. McNellis, J. Meyer, J. Gale, D. Jochym       |
 | J. Aarons, B. Walker, R. Gillen, D. Jones       |
 | T. Green, I. J. Bush, C. J. Armstrong,          |
 | E. J. Higgins, E. L. Brown, M. S. McFly,        |
 | J. Wilkins, B-C. Shih, P. J. P. Byrne           |
 |                                                 |
 | Copyright (c) 2000 - 2018                       |
 |                                                 |
 |     Distributed under the terms of an           |
 |     Agreement between the United Kingdom        |
 |     Car-Parrinello (UKCP) Consortium,           |
 |     Daresbury Laboratory and Accelrys, Inc.     |
 |                                                 |
 | Please cite                                     |
 |                                                 |
 |     "First principles methods using CASTEP"     |
 |                                                 |
 |         Zeitschrift fuer Kristallographie       |
 |           220(5-6) pp. 567-570 (2005)           |
 |                                                 |
 | S. J. Clark, M. D. Segall, C. J. Pickard,       |
 | P. J. Hasnip, M. J. Probert, K. Refson,         |
 | M. C. Payne                                     |
 |                                                 |
 |       in all publications arising from          |
 |              your use of CASTEP                 |
 |                                                 |
 +-------------------------------------------------+
 |                                                 |
 |              http://www.castep.org              |
 |                                                 |
 +-------------------------------------------------+



 Compiled for linux_x86_64_gfortran7.0 on Fri, 31 Jan 2020 20:20:28 +0100
 from code version e1fe0d666396+ Castep191_branch Thu, 24 Oct 2019 13:54:03 +0100
 Compiler: GNU Fortran 7.4.0; Optimisation: fast
 MATHLIBS: default (LAPACK version 3.7.1)
 FFT Lib : default
 Fundamental constants values: CODATA 2014

 Run started: Sat, 06 Nov 2021 00:04:26 +0100

 Atomic calculation performed for O: 1s2 2s2 2p4

 Converged in 60 iterations to an ae energy of -2027.926 eV

   ============================================================                
   | Pseudopotential Report - Date of generation  6-11-2021   |                
   ------------------------------------------------------------                
   | Element: O Ionic charge:  6.00 Level of theory: LDA      |                
   | Atomic Solver: Koelling-Harmon                           |                
   |                                                          |                
   |               Reference Electronic Structure             |                
   |         Orbital         Occupation         Energy        |                
   |            2s              2.000           -0.873        |                
   |            2p              4.000           -0.338        |                
   |                                                          |                
   |                 Pseudopotential Definition               |                
   |        Beta     l      e      Rc     scheme   norm       |                
   |          1      0   -0.873   1.100     qc      0         |                
   |          2      0    0.250   1.100     qc      0         |                
   |          3      1   -0.338   1.100     qc      0         |                
   |          4      1    0.250   1.100     qc      0         |                
   |         loc     2    0.000   1.100     pn      0         |                
   |                                                          |                
   | Augmentation charge Rinner = 0.769                       |                
   | Partial core correction Rc = 0.769                       |                
   ------------------------------------------------------------                
   | "2|1.1|17|20|23|20:21(qc=8)"                             |                
   ------------------------------------------------------------                
   |      Author: Chris J. Pickard, Cambridge University      |                
   ============================================================                

 Atomic calculation performed for Al: 1s2 2s2 2p6 3s2 3p1

 Converged in 55 iterations to an ae energy of -6578.725 eV

   ============================================================                
   | Pseudopotential Report - Date of generation  6-11-2021   |                
   ------------------------------------------------------------                
   | Element: Al Ionic charge:  3.00 Level of theory: LDA     |                
   | Atomic Solver: Koelling-Harmon                           |                
   |                                                          |                
   |               Reference Electronic Structure             |                
   |         Orbital         Occupation         Energy        |                
   |            3s              2.000           -0.288        |                
   |            3p              1.000           -0.102        |                
   |                                                          |                
   |                 Pseudopotential Definition               |                
   |        Beta     l      e      Rc     scheme   norm       |                
   |          1      0   -0.288   2.192     qc      0         |                
   |          2      0    0.250   2.192     qc      0         |                
   |          3      1   -0.102   2.192     qc      0         |                
   |          4      1    0.250   2.192     qc      0         |                
   |          5      2    0.000   2.000     qc      0         |                
   |          6      2    0.250   2.000     qc      0         |                
   |         loc     3    0.000   2.192     pn      0         |                
   |                                                          |                
   | Augmentation charge Rinner = 1.398                       |                
   | Partial core correction Rc = 1.398                       |                
   ------------------------------------------------------------                
   | "3|2.2|2.2|1.4|4|5|5|30:31:32U2U2"                       |                
   ------------------------------------------------------------                
   |      Author: Chris J. Pickard, Cambridge University      |                
   ============================================================                

 Pseudo atomic calculation performed for O 2s2 2p4

 Converged in 22 iterations to a total energy of -404.4576 eV

 Pseudo atomic calculation performed for Al 3s2 3p1

 Converged in 15 iterations to a total energy of -105.5943 eV
 Calculation parallelised over 9 processes.
 Data is distributed by k-point(9-way)

 ************************************ Title ************************************
 

 ***************************** General Parameters ******************************
  
 output verbosity                               : normal  (1)
 write checkpoint data to                       : al2o3_xc-LDA_c-0300_k-5x5x5_geom.check
 type of calculation                            : geometry optimization
 stress calculation                             : off
 density difference calculation                 : off
 electron localisation func (ELF) calculation   : off
 Hirshfeld analysis                             : off
 unlimited duration calculation
 timing information                             : on
 memory usage estimate                          : on
 write extra output files                       : on
 write final potential to formatted file        : off
 write final density to formatted file          : off
 write structure in CIF formatted file          : on
 write structure in CELL formatted file         : on
 write BibTeX reference list                    : on
 write OTFG pseudopotential files               : on
 write electrostatic potential file             : on
 write bands file                               : on
 checkpoint writing                             : both castep_bin and check files
  
 output         length unit                     : A
 output           mass unit                     : amu
 output           time unit                     : ps
 output         charge unit                     : e
 output           spin unit                     : hbar/2
 output         energy unit                     : eV
 output          force unit                     : eV/A
 output       velocity unit                     : A/ps
 output       pressure unit                     : GPa
 output     inv_length unit                     : 1/A
 output      frequency unit                     : cm-1
 output force constant unit                     : eV/A**2
 output         volume unit                     : A**3
 output   IR intensity unit                     : (D/A)**2/amu
 output         dipole unit                     : D
 output         efield unit                     : eV/A/e
 output        entropy unit                     : J/mol/K
  
 wavefunctions paging                           : none
 random number generator seed                   : randomised (426251)
 data distribution                              : optimal for this architecture
 optimization strategy                          : maximize speed(+++)

 *********************** Exchange-Correlation Parameters ***********************
  
 using functional                               : Local Density Approximation
 relativistic treatment                         : Koelling-Harmon
 DFT+D: Semi-empirical dispersion correction    : off

 ************************* Pseudopotential Parameters **************************
  
 pseudopotential representation                 : reciprocal space
 <beta|phi> representation                      : reciprocal space
 spin-orbit coupling                            : off

 **************************** Basis Set Parameters *****************************
  
 plane wave basis set cut-off                   :   300.0000   eV
 size of standard grid                          :     1.7500
 size of   fine   gmax                          :    15.5288   1/A
 finite basis set correction                    : automatic
 number of sample energies                      :          3
           sample  spacing                      :     5.0000   eV

 **************************** Electronic Parameters ****************************
  
 number of  electrons                           :  48.00    
 net charge of system                           :  0.000    
 treating system as non-spin-polarized
 number of bands                                :         29

 ********************* Electronic Minimization Parameters **********************
  
 Method: Treating system as metallic with density mixing treatment of electrons,
         and number of  SD  steps               :          1
         and number of  CG  steps               :          4
  
 total energy / atom convergence tol.           : 0.1000E-04   eV
 eigen-energy convergence tolerance             : 0.1000E-05   eV
 max force / atom convergence tol.              : ignored
 convergence tolerance window                   :          3   cycles
 max. number of SCF cycles                      :         30
 number of fixed-spin iterations                :         10
 smearing scheme                                : Gaussian
 smearing width                                 : 0.2000       eV
 Fermi energy convergence tolerance             : 0.2721E-13   eV
 periodic dipole correction                     : NONE

 ************************** Density Mixing Parameters **************************
  
 density-mixing scheme                          : Broyden
 max. length of mixing history                  :         20
 charge density mixing amplitude                : 0.8000    
 cut-off energy for mixing                      :  300.0       eV

 *********************** Population Analysis Parameters ************************
  
 Population analysis with cutoff                :  3.000       A
 Population analysis output                     : summary and pdos components

 ********************** Geometry Optimization Parameters ***********************
  
 optimization method                            : LBFGS
 max. no. of LBFGS updates                      : unbounded
 variable cell method                           : fixed basis quality
 max. number of steps                           :        150
 estimated bulk modulus                         :  500.0       GPa
 estimated <frequency>                          :  1668.       cm-1
 geom line minimiser                            : on
 with line minimiser tolerance                  :     0.4000
 total energy convergence tolerance             : 0.1000E-04   eV/atom
        max ionic |force| tolerance             : 0.1000E-01   eV/A
 max ionic |displacement| tolerance             : 0.1000E-02   A
   max |stress component| tolerance             : 0.1000       GPa
 convergence tolerance window                   :          2   steps
 backup results every                           :          5   steps
 write geom trajectory file                     : on

 *******************************************************************************
  

                           -------------------------------
                                      Unit Cell
                           -------------------------------
        Real Lattice(A)                      Reciprocal Lattice(1/A)
     2.3801000     1.3741510     4.3310000        1.319941454   0.762068577   0.483582396
    -2.3801000     1.3741510     4.3310000       -1.319941454   0.762068577   0.483582396
     0.0000000    -2.7483030     4.3310000       -0.000000000  -1.524137154   0.483582220

                       Lattice parameters(A)       Cell Angles
                    a =      5.129398          alpha =   55.292535
                    b =      5.129398          beta  =   55.292535
                    c =      5.129399          gamma =   55.292537

                       Current cell volume =            84.990269       A**3
                                   density =             2.399364   AMU/A**3
                                           =             3.984237     g/cm^3

                           -------------------------------
                                     Cell Contents
                           -------------------------------
                         Total number of ions in cell =   10
                      Total number of species in cell =    2
                        Max number of any one species =    6

            xxxxxxxxxxxxxxxxxxxxxxxxxxxxxxxxxxxxxxxxxxxxxxxxxxxxxxxxxxxx
            x  Element    Atom        Fractional coordinates of atoms  x
            x            Number           u          v          w      x
            x----------------------------------------------------------x
            x  O            1         0.556260   0.943740   0.250000   x 
            x  O            2         0.943740   0.250000   0.556260   x 
            x  O            3         0.250000   0.556260   0.943740   x 
            x  O            4         0.056260   0.750000   0.443740   x 
            x  O            5         0.750000   0.443740   0.056260   x 
            x  O            6         0.443740   0.056260   0.750000   x 
            x  Al           1         0.147900   0.147900   0.147900   x 
            x  Al           2         0.647900   0.647900   0.647900   x 
            x  Al           3         0.852100   0.852100   0.852100   x 
            x  Al           4         0.352100   0.352100   0.352100   x 
            xxxxxxxxxxxxxxxxxxxxxxxxxxxxxxxxxxxxxxxxxxxxxxxxxxxxxxxxxxxx


                         No user defined ionic velocities

                           -------------------------------
                                   Details of Species
                           -------------------------------

                               Mass of species in AMU
                                    O   15.9994000
                                    Al   26.9815400

                          Electric Quadrupole Moment (Barn)
                                    O   -0.0255800 Isotope 17
                                    Al    0.1466000 Isotope 27

                          Files used for pseudopotentials:
                                    O 2|1.1|17|20|23|20:21(qc=8)
                                    Al 3|2.2|2.2|1.4|4|5|5|30:31:32U2U2

                           -------------------------------
                              k-Points For BZ Sampling
                           -------------------------------
                       MP grid size for SCF calculation is  5  5  5
                            with an offset of   0.000  0.000  0.000
                       Number of kpoints used =            63

                           -------------------------------
                               Symmetry and Constraints
                           -------------------------------

                      Maximum deviation from symmetry =  0.00000         ANG

                      Number of symmetry operations   =           1
                      Number of ionic constraints     =           3
                      Point group of crystal =     1: C1, 1, 1
                      Space group of crystal =   167: R-3c, -R 3 2"c

             Set iprint > 1 for details on symmetry rotations/translations

                         Centre of mass is constrained
             Set iprint > 1 for details of linear ionic constraints

                         Number of cell constraints= 0
                         Cell constraints are:  1 2 3 4 5 6

                         External pressure/stress (GPa)
                          0.00000   0.00000   0.00000
                                    0.00000   0.00000
                                              0.00000
  
+---------------- MEMORY AND SCRATCH DISK ESTIMATES PER PROCESS --------------+
|                                                     Memory          Disk    |
| Baseline code, static data and system overhead      196.0 MB         0.0 MB |
| BLAS internal memory storage                          0.0 MB         0.0 MB |
| Model and support data                               66.3 MB         0.0 MB |
| Electronic energy minimisation requirements          13.5 MB         0.0 MB |
| Force calculation requirements                        2.9 MB         0.0 MB |
|                                               ----------------------------- |
| Approx. total storage required per process          275.8 MB         0.0 MB |
|                                                                             |
| Requirements will fluctuate during execution and may exceed these estimates |
+-----------------------------------------------------------------------------+
Calculating finite basis set correction with  3 cut-off energies.
Calculating total energy with cut-off of  290.000 eV.
------------------------------------------------------------------------ <-- SCF
SCF loop      Energy           Fermi           Energy gain       Timer   <-- SCF
                               energy          per atom          (sec)   <-- SCF
------------------------------------------------------------------------ <-- SCF
Initial  -1.88261554E+003  0.00000000E+000                         7.92  <-- SCF
      1  -2.78756311E+003  1.18994438E+001   9.04947577E+001       8.74  <-- SCF
      2  -2.91899245E+003  5.79877972E+000   1.31429338E+001       9.37  <-- SCF
      3  -2.92159202E+003  6.15961059E+000   2.59956886E-001      10.00  <-- SCF
      4  -2.91716114E+003  8.20288173E+000  -4.43088169E-001      10.75  <-- SCF
      5  -2.91649796E+003  7.79426066E+000  -6.63173109E-002      11.51  <-- SCF
      6  -2.91649517E+003  7.83240643E+000  -2.79077518E-004      12.39  <-- SCF
      7  -2.91649490E+003  7.84804970E+000  -2.75235283E-005      13.15  <-- SCF
      8  -2.91649490E+003  7.84714280E+000  -1.22023995E-007      13.72  <-- SCF
      9  -2.91649490E+003  7.84725117E+000   9.30476250E-008      14.25  <-- SCF
------------------------------------------------------------------------ <-- SCF
 
Final energy, E             =  -2916.494897723     eV
Final free energy (E-TS)    =  -2916.494897723     eV
(energies not corrected for finite basis set)
 
NB est. 0K energy (E-0.5TS)      =  -2916.494897723     eV
 
Calculating total energy with cut-off of  295.000 eV.
------------------------------------------------------------------------ <-- SCF
SCF loop      Energy           Fermi           Energy gain       Timer   <-- SCF
                               energy          per atom          (sec)   <-- SCF
------------------------------------------------------------------------ <-- SCF
Initial  -2.91649573E+003  0.00000000E+000                        14.52  <-- SCF
      1  -2.92214067E+003  7.77276085E+000   5.64494131E-001      15.21  <-- SCF
      2  -2.92216539E+003  7.77471771E+000   2.47180766E-003      16.06  <-- SCF
      3  -2.92212890E+003  7.92246789E+000  -3.64891603E-003      16.86  <-- SCF
      4  -2.92212045E+003  7.87671474E+000  -8.45397737E-004      17.66  <-- SCF
      5  -2.92212055E+003  7.87687629E+000   1.02728353E-005      18.32  <-- SCF
      6  -2.92212055E+003  7.87710182E+000   2.07899473E-007      18.85  <-- SCF
      7  -2.92212055E+003  7.87714538E+000   2.00365145E-008      19.37  <-- SCF
------------------------------------------------------------------------ <-- SCF
 
Final energy, E             =  -2922.120551284     eV
Final free energy (E-TS)    =  -2922.120551284     eV
(energies not corrected for finite basis set)
 
NB est. 0K energy (E-0.5TS)      =  -2922.120551284     eV
 
Calculating total energy with cut-off of  300.000 eV.
------------------------------------------------------------------------ <-- SCF
SCF loop      Energy           Fermi           Energy gain       Timer   <-- SCF
                               energy          per atom          (sec)   <-- SCF
------------------------------------------------------------------------ <-- SCF
Initial  -2.92212055E+003  0.00000000E+000                        19.64  <-- SCF
      1  -2.92805786E+003  7.85447386E+000   5.93730620E-001      20.33  <-- SCF
      2  -2.92808206E+003  7.85480304E+000   2.42061592E-003      21.17  <-- SCF
      3  -2.92804255E+003  8.00962017E+000  -3.95139354E-003      21.98  <-- SCF
      4  -2.92803266E+003  7.96016619E+000  -9.88893908E-004      22.82  <-- SCF
      5  -2.92803278E+003  7.96027191E+000   1.20488310E-005      23.45  <-- SCF
      6  -2.92803278E+003  7.96049353E+000   2.41630941E-007      24.04  <-- SCF
      7  -2.92803278E+003  7.96053267E+000   2.35500826E-008      24.58  <-- SCF
------------------------------------------------------------------------ <-- SCF
 
Final energy, E             =  -2928.032783900     eV
Final free energy (E-TS)    =  -2928.032783900     eV
(energies not corrected for finite basis set)
 
NB est. 0K energy (E-0.5TS)      =  -2928.032783900     eV
 
 For future reference: finite basis dEtot/dlog(Ecut) =    -337.638053eV
 Total energy corrected for finite basis set =   -2928.008876 eV
 
+---------------- MEMORY AND SCRATCH DISK ESTIMATES PER PROCESS --------------+
|                                                     Memory          Disk    |
| Model and support data                               77.3 MB         0.0 MB |
| Electronic energy minimisation requirements          13.5 MB         0.0 MB |
| Geometry minimisation requirements                   17.4 MB         0.0 MB |
|                                               ----------------------------- |
| Approx. total storage required per process          108.2 MB         0.0 MB |
|                                                                             |
| Requirements will fluctuate during execution and may exceed these estimates |
+-----------------------------------------------------------------------------+
 

 ************************************** Forces **************************************
 *                                                                                  *
 *                           Cartesian components (eV/A)                            *
 * -------------------------------------------------------------------------------- *
 *                         x                    y                    z              *
 *                                                                                  *
 * O               1     -1.24830              0.00029             -0.00070         *
 * O               2      0.62439              1.08091             -0.00069         *
 * O               3      0.62390             -1.08121             -0.00070         *
 * O               4     -0.62439             -1.08092              0.00069         *
 * O               5     -0.62390              1.08121              0.00070         *
 * O               6      1.24830             -0.00029              0.00070         *
 * Al              1     -0.00000              0.00001              0.22665         *
 * Al              2      0.00000             -0.00000              0.22686         *
 * Al              3      0.00000             -0.00001             -0.22665         *
 * Al              4     -0.00000              0.00001             -0.22686         *
 *                                                                                  *
 ************************************************************************************

 ***************** Stress Tensor *****************
 *                                               *
 *          Cartesian components (GPa)           *
 * --------------------------------------------- *
 *             x             y             z     *
 *                                               *
 *  x    -22.851648      0.000008     -0.000011  *
 *  y      0.000008    -22.851725     -0.000012  *
 *  z     -0.000011     -0.000012    -15.345218  *
 *                                               *
 *  Pressure:   20.3495                          *
 *                                               *
 *************************************************
 LBFGS: finished iteration     0 with enthalpy= -2.92800888E+003 eV
  
 +-----------+-----------------+-----------------+------------+-----+ <-- LBFGS
 | Parameter |      value      |    tolerance    |    units   | OK? | <-- LBFGS
 +-----------+-----------------+-----------------+------------+-----+ <-- LBFGS
 |  dE/ion   |   0.000000E+000 |   1.000000E-005 |         eV | No  | <-- LBFGS
 |  |F|max   |   1.248305E+000 |   1.000000E-002 |       eV/A | No  | <-- LBFGS
 |  |dR|max  |   0.000000E+000 |   1.000000E-003 |          A | No  | <-- LBFGS
 |   Smax    |   2.285173E+001 |   1.000000E-001 |        GPa | No  | <-- LBFGS
 +-----------+-----------------+-----------------+------------+-----+ <-- LBFGS
  

================================================================================
 Starting LBFGS iteration          1 ...
================================================================================
  
 +------------+-------------+-------------+-----------------+ <-- min LBFGS
 |    Step    |   lambda    |   F.delta'  |    enthalpy     | <-- min LBFGS
 +------------+-------------+-------------+-----------------+ <-- min LBFGS
 |  previous  |    0.000000 |    0.755453 |    -2928.008876 | <-- min LBFGS
 +------------+-------------+-------------+-----------------+ <-- min LBFGS
  

--------------------------------------------------------------------------------
 LBFGS: starting iteration         1 with trial guess (lambda=  1.000000)
--------------------------------------------------------------------------------
 
+---------------- MEMORY AND SCRATCH DISK ESTIMATES PER PROCESS --------------+
|                                                     Memory          Disk    |
| Model and support data                               77.6 MB         0.0 MB |
| Electronic energy minimisation requirements          13.9 MB         0.0 MB |
| Geometry minimisation requirements                   17.9 MB         0.0 MB |
|                                               ----------------------------- |
| Approx. total storage required per process          109.3 MB         0.0 MB |
|                                                                             |
| Requirements will fluctuate during execution and may exceed these estimates |
+-----------------------------------------------------------------------------+
 

                           -------------------------------
                                      Unit Cell
                           -------------------------------
        Real Lattice(A)              Reciprocal Lattice(1/A)
     2.4163595     1.3950855     4.3753068        1.300134642   0.750633073   0.478685359
    -2.4163594     1.3950855     4.3753068       -1.300134640   0.750633059   0.478685379
     0.0000000    -2.7901719     4.3753067       -0.000000012  -1.501266144   0.478685212

                       Lattice parameters(A)       Cell Angles
                    a =      5.189255          alpha =   55.504168
                    b =      5.189255          beta  =   55.504168
                    c =      5.189255          gamma =   55.504169

                Current cell volume =            88.495711 A**3
                            density =             2.304321 amu/A**3
                                    =             3.826416 g/cm^3

                           -------------------------------
                                     Cell Contents
                           -------------------------------

            xxxxxxxxxxxxxxxxxxxxxxxxxxxxxxxxxxxxxxxxxxxxxxxxxxxxxxxxxxxxxxxxx
            x  Element         Atom        Fractional coordinates of atoms  x
            x                 Number           u          v          w      x
            x---------------------------------------------------------------x
            x  O                 1         0.555003   0.944997   0.249999   x
            x  O                 2         0.944997   0.249999   0.555003   x
            x  O                 3         0.250000   0.555003   0.944997   x
            x  O                 4         0.055003   0.750001   0.444997   x
            x  O                 5         0.750001   0.444997   0.055003   x
            x  O                 6         0.444997   0.055003   0.750000   x
            x  Al                1         0.147984   0.147984   0.147984   x
            x  Al                2         0.647984   0.647984   0.647984   x
            x  Al                3         0.852016   0.852016   0.852016   x
            x  Al                4         0.352016   0.352016   0.352016   x
            xxxxxxxxxxxxxxxxxxxxxxxxxxxxxxxxxxxxxxxxxxxxxxxxxxxxxxxxxxxxxxxxx


------------------------------------------------------------------------ <-- SCF
SCF loop      Energy           Fermi           Energy gain       Timer   <-- SCF
                               energy          per atom          (sec)   <-- SCF
------------------------------------------------------------------------ <-- SCF
Initial  -2.91897585E+003  0.00000000E+000                        26.90  <-- SCF
      1  -2.92921592E+003  6.80631761E+000   1.02400662E+000      27.60  <-- SCF
      2  -2.92927149E+003  6.80752873E+000   5.55696746E-003      28.50  <-- SCF
      3  -2.92882158E+003  7.28485587E+000  -4.49904243E-002      29.32  <-- SCF
      4  -2.92873929E+003  7.13654982E+000  -8.22931823E-003      30.17  <-- SCF
      5  -2.92873952E+003  7.14608769E+000   2.34732922E-005      31.07  <-- SCF
      6  -2.92873950E+003  7.14849248E+000  -2.15281141E-006      31.68  <-- SCF
      7  -2.92873950E+003  7.14851272E+000   6.29928727E-008      32.24  <-- SCF
------------------------------------------------------------------------ <-- SCF
 
Final energy, E             =  -2928.739503738     eV
Final free energy (E-TS)    =  -2928.739503738     eV
(energies not corrected for finite basis set)
 
NB est. 0K energy (E-0.5TS)      =  -2928.739503738     eV
 

 ************************************** Forces **************************************
 *                                                                                  *
 *                           Cartesian components (eV/A)                            *
 * -------------------------------------------------------------------------------- *
 *                         x                    y                    z              *
 *                                                                                  *
 * O               1     -1.50684              0.00019             -0.00086         *
 * O               2      0.75358              1.30487             -0.00085         *
 * O               3      0.75326             -1.30506             -0.00086         *
 * O               4     -0.75359             -1.30488              0.00085         *
 * O               5     -0.75326              1.30507              0.00086         *
 * O               6      1.50686             -0.00019              0.00086         *
 * Al              1     -0.00000              0.00001              0.03809         *
 * Al              2      0.00000             -0.00000              0.03806         *
 * Al              3     -0.00000             -0.00001             -0.03809         *
 * Al              4     -0.00000              0.00000             -0.03805         *
 *                                                                                  *
 ************************************************************************************

 ***************** Stress Tensor *****************
 *                                               *
 *          Cartesian components (GPa)           *
 * --------------------------------------------- *
 *             x             y             z     *
 *                                               *
 *  x    -12.942852      0.000004     -0.000009  *
 *  y      0.000004    -12.942902     -0.000010  *
 *  z     -0.000009     -0.000010     -8.689431  *
 *                                               *
 *  Pressure:   11.5251                          *
 *                                               *
 *************************************************
  
 +------------+-------------+-------------+-----------------+ <-- min LBFGS
 |    Step    |   lambda    |   F.delta'  |    enthalpy     | <-- min LBFGS
 +------------+-------------+-------------+-----------------+ <-- min LBFGS
 |  previous  |    0.000000 |    0.755453 |    -2928.008876 | <-- min LBFGS
 | trial step |    1.000000 |    0.482364 |    -2928.672424 | <-- min LBFGS
 +------------+-------------+-------------+-----------------+ <-- min LBFGS
  

--------------------------------------------------------------------------------
 LBFGS: improving iteration         1 with line minimization (lambda=  2.766329)
--------------------------------------------------------------------------------
 
+---------------- MEMORY AND SCRATCH DISK ESTIMATES PER PROCESS --------------+
|                                                     Memory          Disk    |
| Model and support data                               78.3 MB         0.0 MB |
| Electronic energy minimisation requirements          14.6 MB         0.0 MB |
| Geometry minimisation requirements                   18.9 MB         0.0 MB |
|                                               ----------------------------- |
| Approx. total storage required per process          111.8 MB         0.0 MB |
|                                                                             |
| Requirements will fluctuate during execution and may exceed these estimates |
+-----------------------------------------------------------------------------+
 

                           -------------------------------
                                      Unit Cell
                           -------------------------------
        Real Lattice(A)              Reciprocal Lattice(1/A)
     2.4804057     1.4320627     4.4535672        1.266564073   0.731251039   0.470273634
    -2.4804056     1.4320628     4.4535671       -1.266564070   0.731251001   0.470273685
     0.0000001    -2.8641263     4.4535670       -0.000000031  -1.462502070   0.470273535

                       Lattice parameters(A)       Cell Angles
                    a =      5.295043          alpha =   55.866066
                    b =      5.295043          beta  =   55.866064
                    c =      5.295043          gamma =   55.866062

                Current cell volume =            94.917018 A**3
                            density =             2.148430 amu/A**3
                                    =             3.567552 g/cm^3

                           -------------------------------
                                     Cell Contents
                           -------------------------------

            xxxxxxxxxxxxxxxxxxxxxxxxxxxxxxxxxxxxxxxxxxxxxxxxxxxxxxxxxxxxxxxxx
            x  Element         Atom        Fractional coordinates of atoms  x
            x                 Number           u          v          w      x
            x---------------------------------------------------------------x
            x  O                 1         0.552782   0.947217   0.249998   x
            x  O                 2         0.947218   0.249998   0.552782   x
            x  O                 3         0.249999   0.552782   0.947217   x
            x  O                 4         0.052782   0.750002   0.447218   x
            x  O                 5         0.750002   0.447218   0.052782   x
            x  O                 6         0.447218   0.052783   0.750001   x
            x  Al                1         0.148131   0.148131   0.148131   x
            x  Al                2         0.648132   0.648132   0.648131   x
            x  Al                3         0.851869   0.851869   0.851868   x
            x  Al                4         0.351868   0.351868   0.351868   x
            xxxxxxxxxxxxxxxxxxxxxxxxxxxxxxxxxxxxxxxxxxxxxxxxxxxxxxxxxxxxxxxxx


------------------------------------------------------------------------ <-- SCF
SCF loop      Energy           Fermi           Energy gain       Timer   <-- SCF
                               energy          per atom          (sec)   <-- SCF
------------------------------------------------------------------------ <-- SCF
Initial  -2.91215736E+003  0.00000000E+000                        34.57  <-- SCF
      1  -2.93086215E+003  5.59223158E+000   1.87047972E+000      35.30  <-- SCF
      2  -2.93100591E+003  5.59209409E+000   1.43755089E-002      36.24  <-- SCF
      3  -2.92965931E+003  6.38544210E+000  -1.34660326E-001      37.09  <-- SCF
      4  -2.92937069E+003  6.10903989E+000  -2.88613127E-002      37.97  <-- SCF
      5  -2.92937133E+003  6.12661686E+000   6.35810171E-005      38.93  <-- SCF
      6  -2.92937125E+003  6.13125945E+000  -7.57801778E-006      39.67  <-- SCF
      7  -2.92937125E+003  6.13106770E+000   6.12278326E-008      40.30  <-- SCF
------------------------------------------------------------------------ <-- SCF
 
Final energy, E             =  -2929.371247121     eV
Final free energy (E-TS)    =  -2929.371252636     eV
(energies not corrected for finite basis set)
 
NB est. 0K energy (E-0.5TS)      =  -2929.371249879     eV
 

 ************************************** Forces **************************************
 *                                                                                  *
 *                           Cartesian components (eV/A)                            *
 * -------------------------------------------------------------------------------- *
 *                         x                    y                    z              *
 *                                                                                  *
 * O               1     -1.44238             -0.00011             -0.00110         *
 * O               2      0.72109              1.24919             -0.00109         *
 * O               3      0.72129             -1.24908             -0.00110         *
 * O               4     -0.72110             -1.24920              0.00110         *
 * O               5     -0.72130              1.24909              0.00110         *
 * O               6      1.44239              0.00012              0.00110         *
 * Al              1      0.00000              0.00000             -0.19097         *
 * Al              2     -0.00000             -0.00000             -0.19108         *
 * Al              3     -0.00000             -0.00000              0.19096         *
 * Al              4      0.00000              0.00000              0.19108         *
 *                                                                                  *
 ************************************************************************************

 ***************** Stress Tensor *****************
 *                                               *
 *          Cartesian components (GPa)           *
 * --------------------------------------------- *
 *             x             y             z     *
 *                                               *
 *  x      0.374456     -0.000001      0.000002  *
 *  y     -0.000001      0.374438     -0.000001  *
 *  z      0.000002     -0.000001      0.497646  *
 *                                               *
 *  Pressure:   -0.4155                          *
 *                                               *
 *************************************************
  
 +------------+-------------+-------------+-----------------+ <-- min LBFGS
 |    Step    |   lambda    |   F.delta'  |    enthalpy     | <-- min LBFGS
 +------------+-------------+-------------+-----------------+ <-- min LBFGS
 |  previous  |    0.000000 |    0.755453 |    -2928.008876 | <-- min LBFGS
 | trial step |    1.000000 |    0.482364 |    -2928.672424 | <-- min LBFGS
 |  line step |    2.766329 |    0.066235 |    -2929.446927 | <-- min LBFGS
 +------------+-------------+-------------+-----------------+ <-- min LBFGS
  
 LBFGS: finished iteration     1 with enthalpy= -2.92944693E+003 eV
  
 +-----------+-----------------+-----------------+------------+-----+ <-- LBFGS
 | Parameter |      value      |    tolerance    |    units   | OK? | <-- LBFGS
 +-----------+-----------------+-----------------+------------+-----+ <-- LBFGS
 |  dE/ion   |   1.438051E-001 |   1.000000E-005 |         eV | No  | <-- LBFGS
 |  |F|max   |   1.442394E+000 |   1.000000E-002 |       eV/A | No  | <-- LBFGS
 |  |dR|max  |   1.725235E-002 |   1.000000E-003 |          A | No  | <-- LBFGS
 |   Smax    |   4.976458E-001 |   1.000000E-001 |        GPa | No  | <-- LBFGS
 +-----------+-----------------+-----------------+------------+-----+ <-- LBFGS
  

================================================================================
 Starting LBFGS iteration          2 ...
================================================================================
  
 +------------+-------------+-------------+-----------------+ <-- min LBFGS
 |    Step    |   lambda    |   F.delta'  |    enthalpy     | <-- min LBFGS
 +------------+-------------+-------------+-----------------+ <-- min LBFGS
 |  previous  |    0.000000 |    0.315229 |    -2929.446927 | <-- min LBFGS
 +------------+-------------+-------------+-----------------+ <-- min LBFGS
  

--------------------------------------------------------------------------------
 LBFGS: starting iteration         2 with trial guess (lambda=  1.000000)
--------------------------------------------------------------------------------
 
+---------------- MEMORY AND SCRATCH DISK ESTIMATES PER PROCESS --------------+
|                                                     Memory          Disk    |
| Model and support data                               78.5 MB         0.0 MB |
| Electronic energy minimisation requirements          14.9 MB         0.0 MB |
| Geometry minimisation requirements                   19.2 MB         0.0 MB |
|                                               ----------------------------- |
| Approx. total storage required per process          112.6 MB         0.0 MB |
|                                                                             |
| Requirements will fluctuate during execution and may exceed these estimates |
+-----------------------------------------------------------------------------+
 

                           -------------------------------
                                      Unit Cell
                           -------------------------------
        Real Lattice(A)              Reciprocal Lattice(1/A)
     2.4912920     1.4383480     4.4660118        1.261029523   0.728055643   0.468963200
    -2.4912918     1.4383481     4.4660117       -1.261029519   0.728055604   0.468963253
     0.0000001    -2.8766967     4.4660117       -0.000000033  -1.456111282   0.468963111

                       Lattice parameters(A)       Cell Angles
                    a =      5.312310          alpha =   55.934377
                    b =      5.312310          beta  =   55.934375
                    c =      5.312311          gamma =   55.934371

                Current cell volume =            96.019575 A**3
                            density =             2.123760 amu/A**3
                                    =             3.526587 g/cm^3

                           -------------------------------
                                     Cell Contents
                           -------------------------------

            xxxxxxxxxxxxxxxxxxxxxxxxxxxxxxxxxxxxxxxxxxxxxxxxxxxxxxxxxxxxxxxxx
            x  Element         Atom        Fractional coordinates of atoms  x
            x                 Number           u          v          w      x
            x---------------------------------------------------------------x
            x  O                 1         0.550721   0.949278   0.249998   x
            x  O                 2         0.949278   0.249998   0.550720   x
            x  O                 3         0.249998   0.550720   0.949278   x
            x  O                 4         0.050722   0.750002   0.449279   x
            x  O                 5         0.750002   0.449280   0.050722   x
            x  O                 6         0.449280   0.050722   0.750002   x
            x  Al                1         0.148079   0.148079   0.148079   x
            x  Al                2         0.648079   0.648079   0.648079   x
            x  Al                3         0.851921   0.851921   0.851921   x
            x  Al                4         0.351921   0.351921   0.351921   x
            xxxxxxxxxxxxxxxxxxxxxxxxxxxxxxxxxxxxxxxxxxxxxxxxxxxxxxxxxxxxxxxxx


------------------------------------------------------------------------ <-- SCF
SCF loop      Energy           Fermi           Energy gain       Timer   <-- SCF
                               energy          per atom          (sec)   <-- SCF
------------------------------------------------------------------------ <-- SCF
Initial  -2.92612572E+003  0.00000000E+000                        42.66  <-- SCF
      1  -2.93004117E+003  5.85958863E+000   3.91545065E-001      43.40  <-- SCF
      2  -2.93005784E+003  5.86021670E+000   1.66668509E-003      44.33  <-- SCF
      3  -2.92967903E+003  6.02310949E+000  -3.78809619E-002      45.17  <-- SCF
      4  -2.92967094E+003  5.96366404E+000  -8.09036331E-004      46.08  <-- SCF
      5  -2.92967016E+003  5.97921162E+000  -7.80880584E-005      46.98  <-- SCF
      6  -2.92967012E+003  5.97912075E+000  -3.83793075E-006      47.65  <-- SCF
      7  -2.92967012E+003  5.97918363E+000   5.15191457E-008      48.24  <-- SCF
------------------------------------------------------------------------ <-- SCF
 
Final energy, E             =  -2929.670096476     eV
Final free energy (E-TS)    =  -2929.670117565     eV
(energies not corrected for finite basis set)
 
NB est. 0K energy (E-0.5TS)      =  -2929.670107021     eV
 

 ************************************** Forces **************************************
 *                                                                                  *
 *                           Cartesian components (eV/A)                            *
 * -------------------------------------------------------------------------------- *
 *                         x                    y                    z              *
 *                                                                                  *
 * O               1     -1.31043             -0.00016             -0.00119         *
 * O               2      0.65507              1.13494             -0.00118         *
 * O               3      0.65536             -1.13478             -0.00119         *
 * O               4     -0.65507             -1.13494              0.00118         *
 * O               5     -0.65536              1.13478              0.00119         *
 * O               6      1.31043              0.00016              0.00119         *
 * Al              1      0.00000              0.00000             -0.26492         *
 * Al              2     -0.00000             -0.00000             -0.26505         *
 * Al              3     -0.00000             -0.00000              0.26492         *
 * Al              4      0.00000              0.00000              0.26505         *
 *                                                                                  *
 ************************************************************************************

 ***************** Stress Tensor *****************
 *                                               *
 *          Cartesian components (GPa)           *
 * --------------------------------------------- *
 *             x             y             z     *
 *                                               *
 *  x      2.602161     -0.000005     -0.000001  *
 *  y     -0.000005      2.602151     -0.000004  *
 *  z     -0.000001     -0.000004      1.860969  *
 *                                               *
 *  Pressure:   -2.3551                          *
 *                                               *
 *************************************************
  
 +------------+-------------+-------------+-----------------+ <-- min LBFGS
 |    Step    |   lambda    |   F.delta'  |    enthalpy     | <-- min LBFGS
 +------------+-------------+-------------+-----------------+ <-- min LBFGS
 |  previous  |    0.000000 |    0.315229 |    -2929.446927 | <-- min LBFGS
 | trial step |    1.000000 |    0.236659 |    -2929.592528 | <-- min LBFGS
 +------------+-------------+-------------+-----------------+ <-- min LBFGS
  

--------------------------------------------------------------------------------
 LBFGS: improving iteration         2 with line minimization (lambda=  4.012066)
--------------------------------------------------------------------------------
 
+---------------- MEMORY AND SCRATCH DISK ESTIMATES PER PROCESS --------------+
|                                                     Memory          Disk    |
| Model and support data                               78.7 MB         0.0 MB |
| Electronic energy minimisation requirements          15.2 MB         0.0 MB |
| Geometry minimisation requirements                   19.6 MB         0.0 MB |
|                                               ----------------------------- |
| Approx. total storage required per process          113.5 MB         0.0 MB |
|                                                                             |
| Requirements will fluctuate during execution and may exceed these estimates |
+-----------------------------------------------------------------------------+
 

                           -------------------------------
                                      Unit Cell
                           -------------------------------
        Real Lattice(A)              Reciprocal Lattice(1/A)
     2.5240822     1.4572796     4.5034960        1.244647554   0.718597447   0.465059849
    -2.5240821     1.4572797     4.5034959       -1.244647550   0.718597403   0.465059908
     0.0000002    -2.9145598     4.5034958       -0.000000036  -1.437194898   0.465059785

                       Lattice parameters(A)       Cell Angles
                    a =      5.364339          alpha =   56.137417
                    b =      5.364339          beta  =   56.137414
                    c =      5.364339          gamma =   56.137407

                Current cell volume =            99.391090 A**3
                            density =             2.051719 amu/A**3
                                    =             3.406959 g/cm^3

                           -------------------------------
                                     Cell Contents
                           -------------------------------

            xxxxxxxxxxxxxxxxxxxxxxxxxxxxxxxxxxxxxxxxxxxxxxxxxxxxxxxxxxxxxxxxx
            x  Element         Atom        Fractional coordinates of atoms  x
            x                 Number           u          v          w      x
            x---------------------------------------------------------------x
            x  O                 1         0.544511   0.955484   0.249996   x
            x  O                 2         0.955484   0.249996   0.544511   x
            x  O                 3         0.249997   0.544511   0.955484   x
            x  O                 4         0.044516   0.750004   0.455489   x
            x  O                 5         0.750004   0.455489   0.044516   x
            x  O                 6         0.455489   0.044516   0.750003   x
            x  Al                1         0.147920   0.147920   0.147920   x
            x  Al                2         0.647920   0.647920   0.647920   x
            x  Al                3         0.852080   0.852080   0.852080   x
            x  Al                4         0.352080   0.352080   0.352080   x
            xxxxxxxxxxxxxxxxxxxxxxxxxxxxxxxxxxxxxxxxxxxxxxxxxxxxxxxxxxxxxxxxx


------------------------------------------------------------------------ <-- SCF
SCF loop      Energy           Fermi           Energy gain       Timer   <-- SCF
                               energy          per atom          (sec)   <-- SCF
------------------------------------------------------------------------ <-- SCF
Initial  -2.91547576E+003  0.00000000E+000                        50.62  <-- SCF
      1  -2.93311252E+003  4.96038094E+000   1.76367599E+000      51.36  <-- SCF
      2  -2.93324020E+003  4.97148551E+000   1.27684577E-002      52.33  <-- SCF
      3  -2.92974044E+003  5.48635265E+000  -3.49976383E-001      53.19  <-- SCF
      4  -2.92966294E+003  5.30230388E+000  -7.74979689E-003      54.15  <-- SCF
      5  -2.92965398E+003  5.35332618E+000  -8.96156719E-004      55.07  <-- SCF
      6  -2.92965402E+003  5.35375864E+000   4.01181217E-006      55.95  <-- SCF
      7  -2.92965402E+003  5.35415759E+000   3.69671169E-008      56.57  <-- SCF
------------------------------------------------------------------------ <-- SCF
 
Final energy, E             =  -2929.653999380     eV
Final free energy (E-TS)    =  -2929.654019022     eV
(energies not corrected for finite basis set)
 
NB est. 0K energy (E-0.5TS)      =  -2929.654009201     eV
 

 ************************************** Forces **************************************
 *                                                                                  *
 *                           Cartesian components (eV/A)                            *
 * -------------------------------------------------------------------------------- *
 *                         x                    y                    z              *
 *                                                                                  *
 * O               1     -0.54254             -0.00013             -0.00093         *
 * O               2      0.27117              0.46992             -0.00093         *
 * O               3      0.27138             -0.46979             -0.00093         *
 * O               4     -0.27117             -0.46992              0.00093         *
 * O               5     -0.27139              0.46980              0.00093         *
 * O               6      0.54255              0.00013              0.00093         *
 * Al              1     -0.00000             -0.00000             -0.45290         *
 * Al              2     -0.00000             -0.00000             -0.45298         *
 * Al              3     -0.00000              0.00000              0.45290         *
 * Al              4      0.00000              0.00000              0.45299         *
 *                                                                                  *
 ************************************************************************************

 ***************** Stress Tensor *****************
 *                                               *
 *          Cartesian components (GPa)           *
 * --------------------------------------------- *
 *             x             y             z     *
 *                                               *
 *  x      7.081572     -0.000006     -0.000007  *
 *  y     -0.000006      7.081571     -0.000008  *
 *  z     -0.000007     -0.000008      4.597289  *
 *                                               *
 *  Pressure:   -6.2535                          *
 *                                               *
 *************************************************
  
 +------------+-------------+-------------+-----------------+ <-- min LBFGS
 |    Step    |   lambda    |   F.delta'  |    enthalpy     | <-- min LBFGS
 +------------+-------------+-------------+-----------------+ <-- min LBFGS
 |  previous  |    0.000000 |    0.315229 |    -2929.446927 | <-- min LBFGS
 | trial step |    1.000000 |    0.236659 |    -2929.592528 | <-- min LBFGS
 |  line step |    4.012066 |   -0.038802 |    -2929.878618 | <-- min LBFGS
 +------------+-------------+-------------+-----------------+ <-- min LBFGS
  
 LBFGS: finished iteration     2 with enthalpy= -2.92987862E+003 eV
  
 +-----------+-----------------+-----------------+------------+-----+ <-- LBFGS
 | Parameter |      value      |    tolerance    |    units   | OK? | <-- LBFGS
 +-----------+-----------------+-----------------+------------+-----+ <-- LBFGS
 |  dE/ion   |   4.316913E-002 |   1.000000E-005 |         eV | No  | <-- LBFGS
 |  |F|max   |   5.425529E-001 |   1.000000E-002 |       eV/A | No  | <-- LBFGS
 |  |dR|max  |   4.174204E-002 |   1.000000E-003 |          A | No  | <-- LBFGS
 |   Smax    |   7.081572E+000 |   1.000000E-001 |        GPa | No  | <-- LBFGS
 +-----------+-----------------+-----------------+------------+-----+ <-- LBFGS
  

================================================================================
 Starting LBFGS iteration          3 ...
================================================================================
  
 +------------+-------------+-------------+-----------------+ <-- min LBFGS
 |    Step    |   lambda    |   F.delta'  |    enthalpy     | <-- min LBFGS
 +------------+-------------+-------------+-----------------+ <-- min LBFGS
 |  previous  |    0.000000 |    0.296936 |    -2929.878618 | <-- min LBFGS
 +------------+-------------+-------------+-----------------+ <-- min LBFGS
  

--------------------------------------------------------------------------------
 LBFGS: starting iteration         3 with trial guess (lambda=  1.000000)
--------------------------------------------------------------------------------

                           -------------------------------
                                      Unit Cell
                           -------------------------------
        Real Lattice(A)              Reciprocal Lattice(1/A)
     2.5063391     1.4470356     4.4815434        1.253458812   0.723684621   0.467337907
    -2.5063389     1.4470357     4.4815433       -1.253458818   0.723684589   0.467337974
     0.0000002    -2.8940718     4.4815432       -0.000000031  -1.447369266   0.467337858

                       Lattice parameters(A)       Cell Angles
                    a =      5.334780          alpha =   56.044082
                    b =      5.334780          beta  =   56.044080
                    c =      5.334780          gamma =   56.044072

                Current cell volume =            97.520951 A**3
                            density =             2.091064 amu/A**3
                                    =             3.472294 g/cm^3

                           -------------------------------
                                     Cell Contents
                           -------------------------------

            xxxxxxxxxxxxxxxxxxxxxxxxxxxxxxxxxxxxxxxxxxxxxxxxxxxxxxxxxxxxxxxxx
            x  Element         Atom        Fractional coordinates of atoms  x
            x                 Number           u          v          w      x
            x---------------------------------------------------------------x
            x  O                 1         0.543323   0.956671   0.249996   x
            x  O                 2         0.956671   0.249996   0.543323   x
            x  O                 3         0.249996   0.543323   0.956671   x
            x  O                 4         0.043329   0.750004   0.456677   x
            x  O                 5         0.750004   0.456677   0.043329   x
            x  O                 6         0.456677   0.043329   0.750004   x
            x  Al                1         0.147708   0.147708   0.147708   x
            x  Al                2         0.647708   0.647708   0.647708   x
            x  Al                3         0.852292   0.852292   0.852292   x
            x  Al                4         0.352292   0.352292   0.352292   x
            xxxxxxxxxxxxxxxxxxxxxxxxxxxxxxxxxxxxxxxxxxxxxxxxxxxxxxxxxxxxxxxxx


------------------------------------------------------------------------ <-- SCF
SCF loop      Energy           Fermi           Energy gain       Timer   <-- SCF
                               energy          per atom          (sec)   <-- SCF
------------------------------------------------------------------------ <-- SCF
Initial  -2.92985981E+003  0.00000000E+000                        58.95  <-- SCF
      1  -2.93034635E+003  5.71710226E+000   4.86537971E-002      59.71  <-- SCF
      2  -2.93034880E+003  5.71702586E+000   2.45028059E-004      60.67  <-- SCF
      3  -2.93021359E+003  5.57852375E+000  -1.35203188E-002      61.53  <-- SCF
      4  -2.93020381E+003  5.63696267E+000  -9.78517915E-004      62.40  <-- SCF
      5  -2.93020347E+003  5.62756252E+000  -3.34491371E-005      63.30  <-- SCF
      6  -2.93020348E+003  5.62736776E+000   2.01109653E-007      63.91  <-- SCF
      7  -2.93020348E+003  5.62742196E+000   1.53718653E-008      64.50  <-- SCF
------------------------------------------------------------------------ <-- SCF
 
Final energy, E             =  -2930.203472666     eV
Final free energy (E-TS)    =  -2930.203476216     eV
(energies not corrected for finite basis set)
 
NB est. 0K energy (E-0.5TS)      =  -2930.203474441     eV
 

 ************************************** Forces **************************************
 *                                                                                  *
 *                           Cartesian components (eV/A)                            *
 * -------------------------------------------------------------------------------- *
 *                         x                    y                    z              *
 *                                                                                  *
 * O               1     -0.35340             -0.00018             -0.00102         *
 * O               2      0.17655              0.30614             -0.00102         *
 * O               3      0.17686             -0.30597             -0.00102         *
 * O               4     -0.17654             -0.30614              0.00102         *
 * O               5     -0.17685              0.30596              0.00102         *
 * O               6      0.35340              0.00018              0.00102         *
 * Al              1     -0.00000             -0.00000             -0.48999         *
 * Al              2     -0.00000             -0.00000             -0.49017         *
 * Al              3      0.00000              0.00000              0.49000         *
 * Al              4      0.00000              0.00000              0.49017         *
 *                                                                                  *
 ************************************************************************************

 ***************** Stress Tensor *****************
 *                                               *
 *          Cartesian components (GPa)           *
 * --------------------------------------------- *
 *             x             y             z     *
 *                                               *
 *  x      5.138639     -0.000006     -0.000001  *
 *  y     -0.000006      5.138639     -0.000004  *
 *  z     -0.000001     -0.000004      3.356935  *
 *                                               *
 *  Pressure:   -4.5447                          *
 *                                               *
 *************************************************
  
 +------------+-------------+-------------+-----------------+ <-- min LBFGS
 |    Step    |   lambda    |   F.delta'  |    enthalpy     | <-- min LBFGS
 +------------+-------------+-------------+-----------------+ <-- min LBFGS
 |  previous  |    0.000000 |    0.296936 |    -2929.878618 | <-- min LBFGS
 | trial step |    1.000000 |    0.214499 |    -2929.903313 | <-- min LBFGS
 +------------+-------------+-------------+-----------------+ <-- min LBFGS
  

--------------------------------------------------------------------------------
 LBFGS: improving iteration         3 with line minimization (lambda=  3.601974)
--------------------------------------------------------------------------------

                           -------------------------------
                                      Unit Cell
                           -------------------------------
        Real Lattice(A)              Reciprocal Lattice(1/A)
     2.4601718     1.4203810     4.4244235        1.276981072   0.737265183   0.473371291
    -2.4601715     1.4203810     4.4244233       -1.276981104   0.737265183   0.473371378
     0.0000002    -2.8407623     4.4244232       -0.000000016  -1.474530439   0.473371279

                       Lattice parameters(A)       Cell Angles
                    a =      5.257894          alpha =   55.796219
                    b =      5.257894          beta  =   55.796218
                    c =      5.257894          gamma =   55.796209

                Current cell volume =            92.763732 A**3
                            density =             2.198301 amu/A**3
                                    =             3.650364 g/cm^3

                           -------------------------------
                                     Cell Contents
                           -------------------------------

            xxxxxxxxxxxxxxxxxxxxxxxxxxxxxxxxxxxxxxxxxxxxxxxxxxxxxxxxxxxxxxxxx
            x  Element         Atom        Fractional coordinates of atoms  x
            x                 Number           u          v          w      x
            x---------------------------------------------------------------x
            x  O                 1         0.540231   0.959759   0.249995   x
            x  O                 2         0.959759   0.249996   0.540231   x
            x  O                 3         0.249996   0.540231   0.959759   x
            x  O                 4         0.040241   0.750005   0.459769   x
            x  O                 5         0.750004   0.459769   0.040241   x
            x  O                 6         0.459769   0.040241   0.750004   x
            x  Al                1         0.147156   0.147156   0.147156   x
            x  Al                2         0.647156   0.647156   0.647156   x
            x  Al                3         0.852844   0.852844   0.852843   x
            x  Al                4         0.352844   0.352844   0.352844   x
            xxxxxxxxxxxxxxxxxxxxxxxxxxxxxxxxxxxxxxxxxxxxxxxxxxxxxxxxxxxxxxxxx


------------------------------------------------------------------------ <-- SCF
SCF loop      Energy           Fermi           Energy gain       Timer   <-- SCF
                               energy          per atom          (sec)   <-- SCF
------------------------------------------------------------------------ <-- SCF
Initial  -2.92721713E+003  0.00000000E+000                        66.87  <-- SCF
      1  -2.93034484E+003  6.63034053E+000   3.12770473E-001      67.60  <-- SCF
      2  -2.93035876E+003  6.63007280E+000   1.39178136E-003      68.54  <-- SCF
      3  -2.92942863E+003  6.25399202E+000  -9.30120214E-002      69.39  <-- SCF
      4  -2.92936471E+003  6.40281937E+000  -6.39296714E-003      70.26  <-- SCF
      5  -2.92936299E+003  6.38068180E+000  -1.71766546E-004      71.17  <-- SCF
      6  -2.92936299E+003  6.38027999E+000   5.21522345E-007      71.84  <-- SCF
      7  -2.92936299E+003  6.38043159E+000   7.40787811E-009      72.43  <-- SCF
------------------------------------------------------------------------ <-- SCF
 
Final energy, E             =  -2929.362992901     eV
Final free energy (E-TS)    =  -2929.362992922     eV
(energies not corrected for finite basis set)
 
NB est. 0K energy (E-0.5TS)      =  -2929.362992912     eV
 

 ************************************** Forces **************************************
 *                                                                                  *
 *                           Cartesian components (eV/A)                            *
 * -------------------------------------------------------------------------------- *
 *                         x                    y                    z              *
 *                                                                                  *
 * O               1      0.54055             -0.00031             -0.00062         *
 * O               2     -0.27055             -0.46798             -0.00062         *
 * O               3     -0.27001              0.46829             -0.00062         *
 * O               4      0.27056              0.46800              0.00062         *
 * O               5      0.27002             -0.46831              0.00062         *
 * O               6     -0.54058              0.00031              0.00062         *
 * Al              1     -0.00000             -0.00000             -0.65105         *
 * Al              2     -0.00000             -0.00000             -0.65123         *
 * Al              3      0.00000              0.00000              0.65107         *
 * Al              4      0.00000              0.00000              0.65122         *
 *                                                                                  *
 ************************************************************************************

 ***************** Stress Tensor *****************
 *                                               *
 *          Cartesian components (GPa)           *
 * --------------------------------------------- *
 *             x             y             z     *
 *                                               *
 *  x     -4.387103     -0.000005     -0.000005  *
 *  y     -0.000005     -4.387104     -0.000007  *
 *  z     -0.000005     -0.000007     -4.149822  *
 *                                               *
 *  Pressure:    4.3080                          *
 *                                               *
 *************************************************
  
 +------------+-------------+-------------+-----------------+ <-- min LBFGS
 |    Step    |   lambda    |   F.delta'  |    enthalpy     | <-- min LBFGS
 +------------+-------------+-------------+-----------------+ <-- min LBFGS
 |  previous  |    0.000000 |    0.296936 |    -2929.878618 | <-- min LBFGS
 | trial step |    1.000000 |    0.214499 |    -2929.903313 | <-- min LBFGS
 |  line step |    3.601974 |   -0.178044 |    -2929.527596 | <-- min LBFGS
 +------------+-------------+-------------+-----------------+ <-- min LBFGS
  
 LBFGS: finished iteration     3 with enthalpy= -2.92952760E+003 eV
  
 +-----------+-----------------+-----------------+------------+-----+ <-- LBFGS
 | Parameter |      value      |    tolerance    |    units   | OK? | <-- LBFGS
 +-----------+-----------------+-----------------+------------+-----+ <-- LBFGS
 |  dE/ion   |   3.510218E-002 |   1.000000E-005 |         eV | No  | <-- LBFGS
 |  |F|max   |   6.512287E-001 |   1.000000E-002 |       eV/A | No  | <-- LBFGS
 |  |dR|max  |   2.104628E-002 |   1.000000E-003 |          A | No  | <-- LBFGS
 |   Smax    |   4.387104E+000 |   1.000000E-001 |        GPa | No  | <-- LBFGS
 +-----------+-----------------+-----------------+------------+-----+ <-- LBFGS
  

================================================================================
 Starting LBFGS iteration          4 ...
================================================================================
  
 +------------+-------------+-------------+-----------------+ <-- min LBFGS
 |    Step    |   lambda    |   F.delta'  |    enthalpy     | <-- min LBFGS
 +------------+-------------+-------------+-----------------+ <-- min LBFGS
 |  previous  |    0.000000 |    0.206957 |    -2929.527596 | <-- min LBFGS
 +------------+-------------+-------------+-----------------+ <-- min LBFGS
  

--------------------------------------------------------------------------------
 LBFGS: starting iteration         4 with trial guess (lambda=  1.000000)
--------------------------------------------------------------------------------

                           -------------------------------
                                      Unit Cell
                           -------------------------------
        Real Lattice(A)              Reciprocal Lattice(1/A)
     2.4813751     1.4326227     4.4532856        1.266069268   0.730965259   0.470303336
    -2.4813748     1.4326227     4.4532854       -1.266069296   0.730965253   0.470303423
     0.0000002    -2.8652458     4.4532853       -0.000000019  -1.461930583   0.470303320

                       Lattice parameters(A)       Cell Angles
                    a =      5.295411          alpha =   55.885584
                    b =      5.295411          beta  =   55.885582
                    c =      5.295412          gamma =   55.885574

                Current cell volume =            94.985224 A**3
                            density =             2.146887 amu/A**3
                                    =             3.564990 g/cm^3

                           -------------------------------
                                     Cell Contents
                           -------------------------------

            xxxxxxxxxxxxxxxxxxxxxxxxxxxxxxxxxxxxxxxxxxxxxxxxxxxxxxxxxxxxxxxxx
            x  Element         Atom        Fractional coordinates of atoms  x
            x                 Number           u          v          w      x
            x---------------------------------------------------------------x
            x  O                 1         0.542267   0.957724   0.249996   x
            x  O                 2         0.957724   0.249996   0.542267   x
            x  O                 3         0.249996   0.542267   0.957724   x
            x  O                 4         0.042276   0.750004   0.457733   x
            x  O                 5         0.750004   0.457733   0.042276   x
            x  O                 6         0.457733   0.042276   0.750004   x
            x  Al                1         0.147225   0.147225   0.147225   x
            x  Al                2         0.647225   0.647225   0.647225   x
            x  Al                3         0.852775   0.852775   0.852775   x
            x  Al                4         0.352775   0.352775   0.352775   x
            xxxxxxxxxxxxxxxxxxxxxxxxxxxxxxxxxxxxxxxxxxxxxxxxxxxxxxxxxxxxxxxxx


------------------------------------------------------------------------ <-- SCF
SCF loop      Energy           Fermi           Energy gain       Timer   <-- SCF
                               energy          per atom          (sec)   <-- SCF
------------------------------------------------------------------------ <-- SCF
Initial  -2.92337838E+003  0.00000000E+000                        74.78  <-- SCF
      1  -2.93004041E+003  5.93434814E+000   6.66202830E-001      75.51  <-- SCF
      2  -2.93007368E+003  5.93594427E+000   3.32702769E-003      76.44  <-- SCF
      3  -2.92964262E+003  6.18312982E+000  -4.31059634E-002      77.29  <-- SCF
      4  -2.92961298E+003  6.07937697E+000  -2.96379655E-003      78.20  <-- SCF
      5  -2.92961200E+003  6.09573080E+000  -9.76161526E-005      79.12  <-- SCF
      6  -2.92961201E+003  6.09602094E+000   4.23109917E-007      79.77  <-- SCF
      7  -2.92961201E+003  6.09589802E+000   8.27069591E-008      80.38  <-- SCF
------------------------------------------------------------------------ <-- SCF
 
Final energy, E             =  -2929.612005049     eV
Final free energy (E-TS)    =  -2929.612007645     eV
(energies not corrected for finite basis set)
 
NB est. 0K energy (E-0.5TS)      =  -2929.612006347     eV
 

 ************************************** Forces **************************************
 *                                                                                  *
 *                           Cartesian components (eV/A)                            *
 * -------------------------------------------------------------------------------- *
 *                         x                    y                    z              *
 *                                                                                  *
 * O               1     -0.00155             -0.00025             -0.00096         *
 * O               2      0.00056              0.00147             -0.00096         *
 * O               3      0.00099             -0.00122             -0.00096         *
 * O               4     -0.00055             -0.00146              0.00096         *
 * O               5     -0.00099              0.00121              0.00096         *
[...]
 *  x     -0.073895     -0.000003      0.000001  *
 *  y     -0.000003     -0.073895     -0.000012  *
 *  z      0.000001     -0.000012      0.022871  *
 *                                               *
 *  Pressure:    0.0416                          *
 *                                               *
 *************************************************
  
 +------------+-------------+-------------+-----------------+ <-- min LBFGS
 |    Step    |   lambda    |   F.delta'  |    enthalpy     | <-- min LBFGS
 +------------+-------------+-------------+-----------------+ <-- min LBFGS
 |  previous  |    0.000000 |    0.000503 |    -2929.797173 | <-- min LBFGS
 | trial step |    1.000000 |   -0.001557 |    -2929.793964 | <-- min LBFGS
 |  line step |    0.244126 |   -0.001406 |    -2929.796775 | <-- min LBFGS
 +------------+-------------+-------------+-----------------+ <-- min LBFGS
  

--------------------------------------------------------------------------------
 LBFGS: improving iteration        19 with quad minimization (lambda= -0.106526)
--------------------------------------------------------------------------------

                           -------------------------------
                                      Unit Cell
                           -------------------------------
        Real Lattice(A)              Reciprocal Lattice(1/A)
     2.4890750     1.4370687     4.4220391        1.262152715   0.728703948   0.473626494
    -2.4890748     1.4370687     4.4220390       -1.262152727   0.728703913   0.473626581
     0.0000002    -2.8741368     4.4220385       -0.000000036  -1.457408030   0.473626631

                       Lattice parameters(A)       Cell Angles
                    a =      5.274001          alpha =   56.322163
                    b =      5.274001          beta  =   56.322160
                    c =      5.274001          gamma =   56.322146

                Current cell volume =            94.905033 A**3
                            density =             2.148701 amu/A**3
                                    =             3.568002 g/cm^3

                           -------------------------------
                                     Cell Contents
                           -------------------------------

            xxxxxxxxxxxxxxxxxxxxxxxxxxxxxxxxxxxxxxxxxxxxxxxxxxxxxxxxxxxxxxxxx
            x  Element         Atom        Fractional coordinates of atoms  x
            x                 Number           u          v          w      x
            x---------------------------------------------------------------x
            x  O                 1         0.540291   0.959663   0.249997   x
            x  O                 2         0.959663   0.249997   0.540291   x
            x  O                 3         0.249997   0.540291   0.959663   x
            x  O                 4         0.040337   0.750003   0.459709   x
            x  O                 5         0.750003   0.459709   0.040337   x
            x  O                 6         0.459709   0.040337   0.750002   x
            x  Al                1         0.143820   0.143820   0.143820   x
            x  Al                2         0.643825   0.643825   0.643825   x
            x  Al                3         0.856180   0.856180   0.856180   x
            x  Al                4         0.356175   0.356175   0.356175   x
            xxxxxxxxxxxxxxxxxxxxxxxxxxxxxxxxxxxxxxxxxxxxxxxxxxxxxxxxxxxxxxxxx


------------------------------------------------------------------------ <-- SCF
SCF loop      Energy           Fermi           Energy gain       Timer   <-- SCF
                               energy          per atom          (sec)   <-- SCF
------------------------------------------------------------------------ <-- SCF
Initial  -2.92954920E+003  0.00000000E+000                       262.75  <-- SCF
      1  -2.92962502E+003  6.09703659E+000   7.58192355E-003     263.32  <-- SCF
      2  -2.92962538E+003  6.09703671E+000   3.67238561E-005     263.92  <-- SCF
      3  -2.92962538E+003  6.09809448E+000  -4.44150568E-008     264.48  <-- SCF
      4  -2.92962538E+003  6.09769383E+000  -4.00549315E-008     265.02  <-- SCF
------------------------------------------------------------------------ <-- SCF
 
Final energy, E             =  -2929.625377584     eV
Final free energy (E-TS)    =  -2929.625381810     eV
(energies not corrected for finite basis set)
 
NB est. 0K energy (E-0.5TS)      =  -2929.625379697     eV
 

 ************************************** Forces **************************************
 *                                                                                  *
 *                           Cartesian components (eV/A)                            *
 * -------------------------------------------------------------------------------- *
 *                         x                    y                    z              *
 *                                                                                  *
 * O               1     -0.00124             -0.00036             -0.00071         *
 * O               2      0.00030              0.00125             -0.00071         *
 * O               3      0.00093             -0.00089             -0.00071         *
 * O               4     -0.00030             -0.00125              0.00071         *
 * O               5     -0.00093              0.00089              0.00071         *
 * O               6      0.00124              0.00036              0.00071         *
 * Al              1      0.00000             -0.00000             -0.00054         *
 * Al              2     -0.00000             -0.00000              0.00062         *
 * Al              3     -0.00000              0.00000              0.00054         *
 * Al              4      0.00000              0.00000             -0.00062         *
 *                                                                                  *
 ************************************************************************************

 ***************** Stress Tensor *****************
 *                                               *
 *          Cartesian components (GPa)           *
 * --------------------------------------------- *
 *             x             y             z     *
 *                                               *
 *  x     -0.003098      0.000001     -0.000000  *
 *  y      0.000001     -0.003095      0.000000  *
 *  z     -0.000000      0.000000     -0.028814  *
 *                                               *
 *  Pressure:    0.0117                          *
 *                                               *
 *************************************************
  
 +------------+-------------+-------------+-----------------+ <-- min LBFGS
 |    Step    |   lambda    |   F.delta'  |    enthalpy     | <-- min LBFGS
 +------------+-------------+-------------+-----------------+ <-- min LBFGS
 |  previous  |    0.000000 |    0.000503 |    -2929.797173 | <-- min LBFGS
 | trial step |    1.000000 |   -0.001557 |    -2929.793964 | <-- min LBFGS
 |  line step |    0.244126 |   -0.001406 |    -2929.796775 | <-- min LBFGS
 |  quad step |   -0.106526 |    0.000511 |    -2929.797172 | <-- min LBFGS
 +------------+-------------+-------------+-----------------+ <-- min LBFGS
  
 LBFGS: finished iteration    19 with enthalpy= -2.92979717E+003 eV
  
 +-----------+-----------------+-----------------+------------+-----+ <-- LBFGS
 | Parameter |      value      |    tolerance    |    units   | OK? | <-- LBFGS
 +-----------+-----------------+-----------------+------------+-----+ <-- LBFGS
 |  dE/ion   |   3.083725E-008 |   1.000000E-005 |         eV | Yes | <-- LBFGS
 |  |F|max   |   1.474813E-003 |   1.000000E-002 |       eV/A | Yes | <-- LBFGS
 |  |dR|max  |   9.459851E-006 |   1.000000E-003 |          A | Yes | <-- LBFGS
 |   Smax    |   2.881373E-002 |   1.000000E-001 |        GPa | Yes | <-- LBFGS
 +-----------+-----------------+-----------------+------------+-----+ <-- LBFGS
  
 LBFGS: Geometry optimization completed successfully.

================================================================================
 LBFGS: Final Configuration:
================================================================================

                           -------------------------------
                                      Unit Cell
                           -------------------------------
        Real Lattice(A)              Reciprocal Lattice(1/A)
     2.4890750     1.4370687     4.4220391        1.262152715   0.728703948   0.473626494
    -2.4890748     1.4370687     4.4220390       -1.262152727   0.728703913   0.473626581
     0.0000002    -2.8741368     4.4220385       -0.000000036  -1.457408030   0.473626631

                       Lattice parameters(A)       Cell Angles
                    a =      5.274001          alpha =   56.322163
                    b =      5.274001          beta  =   56.322160
                    c =      5.274001          gamma =   56.322146

                Current cell volume =            94.905033 A**3
                            density =             2.148701 amu/A**3
                                    =             3.568002 g/cm^3

                           -------------------------------
                                     Cell Contents
                           -------------------------------

            xxxxxxxxxxxxxxxxxxxxxxxxxxxxxxxxxxxxxxxxxxxxxxxxxxxxxxxxxxxxxxxxx
            x  Element         Atom        Fractional coordinates of atoms  x
            x                 Number           u          v          w      x
            x---------------------------------------------------------------x
            x  O                 1         0.540291   0.959663   0.249997   x
            x  O                 2         0.959663   0.249997   0.540291   x
            x  O                 3         0.249997   0.540291   0.959663   x
            x  O                 4         0.040337   0.750003   0.459709   x
            x  O                 5         0.750003   0.459709   0.040337   x
            x  O                 6         0.459709   0.040337   0.750002   x
            x  Al                1         0.143820   0.143820   0.143820   x
            x  Al                2         0.643825   0.643825   0.643825   x
            x  Al                3         0.856180   0.856180   0.856180   x
            x  Al                4         0.356175   0.356175   0.356175   x
            xxxxxxxxxxxxxxxxxxxxxxxxxxxxxxxxxxxxxxxxxxxxxxxxxxxxxxxxxxxxxxxxx


 LBFGS: Final Enthalpy     = -2.92979717E+003 eV
 LBFGS: Final <frequency>  =    1391.65714 cm-1
 LBFGS: Final bulk modulus =     883.33998 GPa

 ************************************** Forces **************************************
 *                                                                                  *
 *                           Cartesian components (eV/A)                            *
 * -------------------------------------------------------------------------------- *
 *                         x                    y                    z              *
 *                                                                                  *
 * O               1     -0.00124             -0.00036             -0.00071         *
 * O               2      0.00030              0.00125             -0.00071         *
 * O               3      0.00093             -0.00089             -0.00071         *
 * O               4     -0.00030             -0.00125              0.00071         *
 * O               5     -0.00093              0.00089              0.00071         *
 * O               6      0.00124              0.00036              0.00071         *
 * Al              1      0.00000             -0.00000             -0.00054         *
 * Al              2     -0.00000             -0.00000              0.00062         *
 * Al              3     -0.00000              0.00000              0.00054         *
 * Al              4      0.00000              0.00000             -0.00062         *
 *                                                                                  *
 ************************************************************************************

 ***************** Stress Tensor *****************
 *                                               *
 *          Cartesian components (GPa)           *
 * --------------------------------------------- *
 *             x             y             z     *
 *                                               *
 *  x     -0.003098      0.000001     -0.000000  *
 *  y      0.000001     -0.003095      0.000000  *
 *  z     -0.000000      0.000000     -0.028814  *
 *                                               *
 *  Pressure:    0.0117                          *
 *                                               *
 *************************************************

 Pseudo atomic calculation performed for O 2s2 2p4

 Converged in 22 iterations to a total energy of -404.4576 eV

 Pseudo atomic calculation performed for Al 3s2 3p1

 Converged in 15 iterations to a total energy of -105.5943 eV
Charge spilling parameter for spin component 1 = 0.75%

            Orbital Populations       
     Ion    Atom   Orbital             Charge
  -------------------------------------------
      O     1      S                    1.905
      O     1      Px                   1.698
      O     1      Py                   1.717
      O     1      Pz                   1.724
      O     2      S                    1.905
      O     2      Px                   1.712
      O     2      Py                   1.703
      O     2      Pz                   1.724
      O     3      S                    1.905
      O     3      Px                   1.712
      O     3      Py                   1.703
      O     3      Pz                   1.724
      O     4      S                    1.905
      O     4      Px                   1.712
      O     4      Py                   1.703
      O     4      Pz                   1.724
      O     5      S                    1.905
      O     5      Px                   1.712
      O     5      Py                   1.703
      O     5      Pz                   1.724
      O     6      S                    1.905
      O     6      Px                   1.698
      O     6      Py                   1.717
      O     6      Pz                   1.724
     Al     1      S                    0.571
     Al     1      Px                   0.287
     Al     1      Py                   0.287
     Al     1      Pz                   0.290
     Al     2      S                    0.571
     Al     2      Px                   0.287
     Al     2      Py                   0.287
     Al     2      Pz                   0.290
     Al     3      S                    0.571
     Al     3      Px                   0.287
     Al     3      Py                   0.287
     Al     3      Pz                   0.290
     Al     4      S                    0.571
     Al     4      Px                   0.287
     Al     4      Py                   0.287
     Al     4      Pz                   0.290
  -------------------------------------------
                           Total:      48.000
  -------------------------------------------

     Atomic Populations (Mulliken)
     -----------------------------
Species          Ion     s      p      d      f     Total  Charge (e)
=====================================================================
  O               1     1.90   5.14   0.00   0.00   7.04    -1.04
  O               2     1.90   5.14   0.00   0.00   7.04    -1.04
  O               3     1.90   5.14   0.00   0.00   7.04    -1.04
  O               4     1.90   5.14   0.00   0.00   7.04    -1.04
  O               5     1.90   5.14   0.00   0.00   7.04    -1.04
  O               6     1.90   5.14   0.00   0.00   7.04    -1.04
  Al              1     0.57   0.86   0.00   0.00   1.43     1.57
  Al              2     0.57   0.86   0.00   0.00   1.43     1.57
  Al              3     0.57   0.86   0.00   0.00   1.43     1.57
  Al              4     0.57   0.86   0.00   0.00   1.43     1.57
=====================================================================

                 Bond                   Population      Length (A)
======================================================================
               O 1 -- Al 3                   0.36        1.94897
               O 6 -- Al 1                   0.36        1.94897
               O 3 -- Al 3                   0.36        1.94897
               O 5 -- Al 1                   0.36        1.94897
               O 4 -- Al 1                   0.36        1.94897
               O 2 -- Al 3                   0.36        1.94897
               O 2 -- Al 2                   0.36        1.94909
               O 4 -- Al 4                   0.36        1.94909
               O 6 -- Al 4                   0.36        1.94909
               O 1 -- Al 2                   0.36        1.94909
               O 5 -- Al 4                   0.36        1.94909
               O 3 -- Al 2                   0.36        1.94909
               O 4 -- Al 3                   0.25        2.01797
               O 2 -- Al 1                   0.25        2.01797
               O 1 -- Al 1                   0.25        2.01797
               O 3 -- Al 1                   0.25        2.01797
               O 5 -- Al 3                   0.25        2.01797
               O 6 -- Al 3                   0.25        2.01797
               O 5 -- Al 2                   0.25        2.01823
               O 3 -- Al 4                   0.25        2.01823
               O 6 -- Al 2                   0.25        2.01823
               O 1 -- Al 4                   0.25        2.01823
               O 2 -- Al 4                   0.25        2.01823
               O 4 -- Al 2                   0.25        2.01823
               O 1 -- O 2                   -0.23        2.50321
               O 4 -- O 6                   -0.23        2.50321
               O 5 -- O 6                   -0.23        2.50321
               O 1 -- O 3                   -0.23        2.50321
               O 4 -- O 5                   -0.23        2.50321
               O 2 -- O 3                   -0.23        2.50321
               O 1 -- O 6                   -0.23        2.66708
               O 2 -- O 4                   -0.23        2.66708
               O 3 -- O 5                   -0.23        2.66708
              Al 1 -- Al 4                  -0.52        2.81712
              Al 2 -- Al 3                  -0.52        2.81712
               O 1 -- O 5                   -0.13        2.83572
               O 3 -- O 6                   -0.13        2.83572
               O 3 -- O 4                   -0.13        2.83572
               O 1 -- O 4                   -0.13        2.83572
               O 2 -- O 5                   -0.13        2.83572
               O 2 -- O 6                   -0.13        2.83572
              Al 2 -- Al 4                  -0.63        2.93734
              Al 1 -- Al 3                  -0.63        2.93736
======================================================================


Writing analysis data to al2o3_xc-LDA_c-0300_k-5x5x5_geom.castep_bin

Writing model to al2o3_xc-LDA_c-0300_k-5x5x5_geom.check
 
 A BibTeX formatted list of references used in this run has been written to 
 al2o3_xc-LDA_c-0300_k-5x5x5_geom.bib
 
Initialisation time =      6.88 s
Calculation time    =    261.18 s
Finalisation time   =      0.08 s
Total time          =    268.14 s
Peak Memory Use     = 569916 kB
  
Overall parallel efficiency rating: Excellent (94%)                             
  
Data was distributed by:-
k-point (9-way); efficiency rating: Excellent (95%)                             
  
Parallel notes:
1) Calculation only took 268.1 s, so efficiency estimates may be inaccurate.    
