 +-------------------------------------------------+
 |                                                 |
 |      CCC   AA    SSS  TTTTT  EEEEE  PPPP        |
 |     C     A  A  S       T    E      P   P       |
 |     C     AAAA   SS     T    EEE    PPPP        |
 |     C     A  A     S    T    E      P           |
 |      CCC  A  A  SSS     T    EEEEE  P           |
 |                                                 |
 +-------------------------------------------------+
 |                                                 |
 | Welcome to Academic Release CASTEP version 19.11|          
 | Ab Initio Total Energy Program                  |
 |                                                 |
 | Authors:                                        |
 | M. Segall, M. Probert, C. Pickard, P. Hasnip,   |
 | S. Clark, K. Refson, J. R. Yates, M. Payne      |
 |                                                 |
 | Contributors:                                   |
 | P. Lindan, P. Haynes, J. White, V. Milman,      |
 | N. Govind, M. Gibson, P. Tulip, V. Cocula,      |
 | B. Montanari, D. Quigley, M. Glover,            |
 | L. Bernasconi, A. Perlov, M. Plummer,           |
 | E. McNellis, J. Meyer, J. Gale, D. Jochym       |
 | J. Aarons, B. Walker, R. Gillen, D. Jones       |
 | T. Green, I. J. Bush, C. J. Armstrong,          |
 | E. J. Higgins, E. L. Brown, M. S. McFly,        |
 | J. Wilkins, B-C. Shih, P. J. P. Byrne           |
 |                                                 |
 | Copyright (c) 2000 - 2018                       |
 |                                                 |
 |     Distributed under the terms of an           |
 |     Agreement between the United Kingdom        |
 |     Car-Parrinello (UKCP) Consortium,           |
 |     Daresbury Laboratory and Accelrys, Inc.     |
 |                                                 |
 | Please cite                                     |
 |                                                 |
 |     "First principles methods using CASTEP"     |
 |                                                 |
 |         Zeitschrift fuer Kristallographie       |
 |           220(5-6) pp. 567-570 (2005)           |
 |                                                 |
 | S. J. Clark, M. D. Segall, C. J. Pickard,       |
 | P. J. Hasnip, M. J. Probert, K. Refson,         |
 | M. C. Payne                                     |
 |                                                 |
 |       in all publications arising from          |
 |              your use of CASTEP                 |
 |                                                 |
 +-------------------------------------------------+
 |                                                 |
 |              http://www.castep.org              |
 |                                                 |
 +-------------------------------------------------+



 Compiled for linux_x86_64_gfortran7.0 on Fri, 31 Jan 2020 20:20:28 +0100
 from code version e1fe0d666396+ Castep191_branch Thu, 24 Oct 2019 13:54:03 +0100
 Compiler: GNU Fortran 7.4.0; Optimisation: fast
 MATHLIBS: default (LAPACK version 3.7.1)
 FFT Lib : default
 Fundamental constants values: CODATA 2014

 Run started: Wed, 10 Nov 2021 13:42:47 +0100

 Atomic calculation performed for O: 1s2 2s2 2p4

 Converged in 57 iterations to an ae energy of -2034.019 eV

   ============================================================                
   | Pseudopotential Report - Date of generation 10-11-2021   |                
   ------------------------------------------------------------                
   | Element: O Ionic charge:  6.00 Level of theory: PBESOL   |                
   | Atomic Solver: Koelling-Harmon                           |                
   |                                                          |                
   |               Reference Electronic Structure             |                
   |         Orbital         Occupation         Energy        |                
   |            2s              2.000           -0.875        |                
   |            2p              4.000           -0.330        |                
   |                                                          |                
   |                 Pseudopotential Definition               |                
   |        Beta     l      e      Rc     scheme   norm       |                
   |          1      0   -0.875   1.100     qc      0         |                
   |          2      0    0.250   1.100     qc      0         |                
   |          3      1   -0.330   1.100     qc      0         |                
   |          4      1    0.250   1.100     qc      0         |                
   |         loc     2    0.000   1.100     pn      0         |                
   |                                                          |                
   | Augmentation charge Rinner = 0.769                       |                
   | Partial core correction Rc = 0.769                       |                
   ------------------------------------------------------------                
   | "2|1.1|17|20|23|20:21(qc=8)"                             |                
   ------------------------------------------------------------                
   |      Author: Chris J. Pickard, Cambridge University      |                
   ============================================================                

 Atomic calculation performed for Al: 1s2 2s2 2p6 3s2 3p1

 Converged in 55 iterations to an ae energy of -6590.489 eV

   ============================================================                
   | Pseudopotential Report - Date of generation 10-11-2021   |                
   ------------------------------------------------------------                
   | Element: Al Ionic charge:  3.00 Level of theory: PBESOL  |                
   | Atomic Solver: Koelling-Harmon                           |                
   |                                                          |                
   |               Reference Electronic Structure             |                
   |         Orbital         Occupation         Energy        |                
   |            3s              2.000           -0.284        |                
   |            3p              1.000           -0.099        |                
   |                                                          |                
   |                 Pseudopotential Definition               |                
   |        Beta     l      e      Rc     scheme   norm       |                
   |          1      0   -0.284   2.192     qc      0         |                
   |          2      0    0.250   2.192     qc      0         |                
   |          3      1   -0.099   2.192     qc      0         |                
   |          4      1    0.250   2.192     qc      0         |                
   |          5      2    0.000   2.000     qc      0         |                
   |          6      2    0.250   2.000     qc      0         |                
   |         loc     3    0.000   2.192     pn      0         |                
   |                                                          |                
   | Augmentation charge Rinner = 1.398                       |                
   | Partial core correction Rc = 1.398                       |                
   ------------------------------------------------------------                
   | "3|2.2|2.2|1.4|4|5|5|30:31:32U2U2"                       |                
   ------------------------------------------------------------                
   |      Author: Chris J. Pickard, Cambridge University      |                
   ============================================================                

 Pseudo atomic calculation performed for O 2s2 2p4

 Converged in 21 iterations to a total energy of -430.8269 eV

 Pseudo atomic calculation performed for Al 3s2 3p1

 Converged in 11 iterations to a total energy of -105.9168 eV
 Calculation parallelised over 9 processes.
 Data is distributed by k-point(9-way)

 ************************************ Title ************************************
 

 ***************************** General Parameters ******************************
  
 output verbosity                               : normal  (1)
 write checkpoint data to                       : al2o3_xc-PBESOL_c-0600_k-6x6x6_geom.check
 type of calculation                            : geometry optimization
 stress calculation                             : off
 density difference calculation                 : off
 electron localisation func (ELF) calculation   : off
 Hirshfeld analysis                             : off
 unlimited duration calculation
 timing information                             : on
 memory usage estimate                          : on
 write extra output files                       : on
 write final potential to formatted file        : off
 write final density to formatted file          : off
 write structure in CIF formatted file          : on
 write structure in CELL formatted file         : on
 write BibTeX reference list                    : on
 write OTFG pseudopotential files               : on
 write electrostatic potential file             : on
 write bands file                               : on
 checkpoint writing                             : both castep_bin and check files
  
 output         length unit                     : A
 output           mass unit                     : amu
 output           time unit                     : ps
 output         charge unit                     : e
 output           spin unit                     : hbar/2
 output         energy unit                     : eV
 output          force unit                     : eV/A
 output       velocity unit                     : A/ps
 output       pressure unit                     : GPa
 output     inv_length unit                     : 1/A
 output      frequency unit                     : cm-1
 output force constant unit                     : eV/A**2
 output         volume unit                     : A**3
 output   IR intensity unit                     : (D/A)**2/amu
 output         dipole unit                     : D
 output         efield unit                     : eV/A/e
 output        entropy unit                     : J/mol/K
  
 wavefunctions paging                           : none
 random number generator seed                   : randomised (134247077)
 data distribution                              : optimal for this architecture
 optimization strategy                          : maximize speed(+++)

 *********************** Exchange-Correlation Parameters ***********************
  
 using functional                               : PBE for solids (2008)
 relativistic treatment                         : Koelling-Harmon
 DFT+D: Semi-empirical dispersion correction    : off

 ************************* Pseudopotential Parameters **************************
  
 pseudopotential representation                 : reciprocal space
 <beta|phi> representation                      : reciprocal space
 spin-orbit coupling                            : off

 **************************** Basis Set Parameters *****************************
  
 plane wave basis set cut-off                   :   600.0000   eV
 size of standard grid                          :     1.7500
 size of   fine   gmax                          :    21.9610   1/A
 finite basis set correction                    : automatic
 number of sample energies                      :          3
           sample  spacing                      :     5.0000   eV

 **************************** Electronic Parameters ****************************
  
 number of  electrons                           :  48.00    
 net charge of system                           :  0.000    
 treating system as non-spin-polarized
 number of bands                                :         29

 ********************* Electronic Minimization Parameters **********************
  
 Method: Treating system as metallic with density mixing treatment of electrons,
         and number of  SD  steps               :          1
         and number of  CG  steps               :          4
  
 total energy / atom convergence tol.           : 0.1000E-04   eV
 eigen-energy convergence tolerance             : 0.1000E-05   eV
 max force / atom convergence tol.              : ignored
 convergence tolerance window                   :          3   cycles
 max. number of SCF cycles                      :         30
 number of fixed-spin iterations                :         10
 smearing scheme                                : Gaussian
 smearing width                                 : 0.2000       eV
 Fermi energy convergence tolerance             : 0.2721E-13   eV
 periodic dipole correction                     : NONE

 ************************** Density Mixing Parameters **************************
  
 density-mixing scheme                          : Broyden
 max. length of mixing history                  :         20
 charge density mixing amplitude                : 0.8000    
 cut-off energy for mixing                      :  600.0       eV

 *********************** Population Analysis Parameters ************************
  
 Population analysis with cutoff                :  3.000       A
 Population analysis output                     : summary and pdos components

 ********************** Geometry Optimization Parameters ***********************
  
 optimization method                            : LBFGS
 max. no. of LBFGS updates                      : unbounded
 variable cell method                           : fixed basis quality
 max. number of steps                           :        150
 estimated bulk modulus                         :  500.0       GPa
 estimated <frequency>                          :  1668.       cm-1
 geom line minimiser                            : on
 with line minimiser tolerance                  :     0.4000
 total energy convergence tolerance             : 0.1000E-04   eV/atom
        max ionic |force| tolerance             : 0.1000E-01   eV/A
 max ionic |displacement| tolerance             : 0.1000E-02   A
   max |stress component| tolerance             : 0.1000       GPa
 convergence tolerance window                   :          2   steps
 backup results every                           :          5   steps
 write geom trajectory file                     : on

 *******************************************************************************
  

                           -------------------------------
                                      Unit Cell
                           -------------------------------
        Real Lattice(A)                      Reciprocal Lattice(1/A)
     2.3801000     1.3741510     4.3310000        1.319941454   0.762068577   0.483582396
    -2.3801000     1.3741510     4.3310000       -1.319941454   0.762068577   0.483582396
     0.0000000    -2.7483030     4.3310000       -0.000000000  -1.524137154   0.483582220

                       Lattice parameters(A)       Cell Angles
                    a =      5.129398          alpha =   55.292535
                    b =      5.129398          beta  =   55.292535
                    c =      5.129399          gamma =   55.292537

                       Current cell volume =            84.990269       A**3
                                   density =             2.399364   AMU/A**3
                                           =             3.984237     g/cm^3

                           -------------------------------
                                     Cell Contents
                           -------------------------------
                         Total number of ions in cell =   10
                      Total number of species in cell =    2
                        Max number of any one species =    6

            xxxxxxxxxxxxxxxxxxxxxxxxxxxxxxxxxxxxxxxxxxxxxxxxxxxxxxxxxxxx
            x  Element    Atom        Fractional coordinates of atoms  x
            x            Number           u          v          w      x
            x----------------------------------------------------------x
            x  O            1         0.556260   0.943740   0.250000   x 
            x  O            2         0.943740   0.250000   0.556260   x 
            x  O            3         0.250000   0.556260   0.943740   x 
            x  O            4         0.056260   0.750000   0.443740   x 
            x  O            5         0.750000   0.443740   0.056260   x 
            x  O            6         0.443740   0.056260   0.750000   x 
            x  Al           1         0.147900   0.147900   0.147900   x 
            x  Al           2         0.647900   0.647900   0.647900   x 
            x  Al           3         0.852100   0.852100   0.852100   x 
            x  Al           4         0.352100   0.352100   0.352100   x 
            xxxxxxxxxxxxxxxxxxxxxxxxxxxxxxxxxxxxxxxxxxxxxxxxxxxxxxxxxxxx


                         No user defined ionic velocities

                           -------------------------------
                                   Details of Species
                           -------------------------------

                               Mass of species in AMU
                                    O   15.9994000
                                    Al   26.9815400

                          Electric Quadrupole Moment (Barn)
                                    O   -0.0255800 Isotope 17
                                    Al    0.1466000 Isotope 27

                          Files used for pseudopotentials:
                                    O 2|1.1|17|20|23|20:21(qc=8)
                                    Al 3|2.2|2.2|1.4|4|5|5|30:31:32U2U2

                           -------------------------------
                              k-Points For BZ Sampling
                           -------------------------------
                       MP grid size for SCF calculation is  6  6  6
                            with an offset of   0.000  0.000  0.000
                       Number of kpoints used =           108

                           -------------------------------
                               Symmetry and Constraints
                           -------------------------------

                      Maximum deviation from symmetry =  0.00000         ANG

                      Number of symmetry operations   =           1
                      Number of ionic constraints     =           3
                      Point group of crystal =     1: C1, 1, 1
                      Space group of crystal =   167: R-3c, -R 3 2"c

             Set iprint > 1 for details on symmetry rotations/translations

                         Centre of mass is constrained
             Set iprint > 1 for details of linear ionic constraints

                         Number of cell constraints= 0
                         Cell constraints are:  1 2 3 4 5 6

                         External pressure/stress (GPa)
                          0.00000   0.00000   0.00000
                                    0.00000   0.00000
                                              0.00000
  
+---------------- MEMORY AND SCRATCH DISK ESTIMATES PER PROCESS --------------+
|                                                     Memory          Disk    |
| Baseline code, static data and system overhead      196.0 MB         0.0 MB |
| BLAS internal memory storage                          0.0 MB         0.0 MB |
| Model and support data                              136.0 MB         0.0 MB |
| Electronic energy minimisation requirements          48.0 MB         0.0 MB |
| Force calculation requirements                        6.8 MB         0.0 MB |
|                                               ----------------------------- |
| Approx. total storage required per process          380.0 MB         0.0 MB |
|                                                                             |
| Requirements will fluctuate during execution and may exceed these estimates |
+-----------------------------------------------------------------------------+
Calculating finite basis set correction with  3 cut-off energies.
Calculating total energy with cut-off of  590.000 eV.
------------------------------------------------------------------------ <-- SCF
SCF loop      Energy           Fermi           Energy gain       Timer   <-- SCF
                               energy          per atom          (sec)   <-- SCF
------------------------------------------------------------------------ <-- SCF
Initial  -2.25069324E+003  0.00000000E+000                         8.88  <-- SCF
      1  -2.87239705E+003  1.27100830E+001   6.21703806E+001      13.26  <-- SCF
      2  -3.08796091E+003  8.77512750E+000   2.15563859E+001      17.11  <-- SCF
      3  -3.09374903E+003  8.83468873E+000   5.78811668E-001      20.79  <-- SCF
      4  -3.08946638E+003  1.04058932E+001  -4.28264275E-001      24.88  <-- SCF
      5  -3.08649309E+003  9.79168591E+000  -2.97329397E-001      28.89  <-- SCF
      6  -3.08654246E+003  9.83339732E+000   4.93721841E-003      33.66  <-- SCF
      7  -3.08653810E+003  9.87011365E+000  -4.36132931E-004      37.84  <-- SCF
      8  -3.08653815E+003  9.89395253E+000   4.57038543E-006      42.05  <-- SCF
      9  -3.08653796E+003  9.88912213E+000  -1.86274843E-005      45.88  <-- SCF
     10  -3.08653796E+003  9.88896908E+000  -1.59702789E-008      48.84  <-- SCF
     11  -3.08653796E+003  9.88907398E+000   2.43691611E-007      51.71  <-- SCF
------------------------------------------------------------------------ <-- SCF
 
Final energy, E             =  -3086.537962166     eV
Final free energy (E-TS)    =  -3086.537962166     eV
(energies not corrected for finite basis set)
 
NB est. 0K energy (E-0.5TS)      =  -3086.537962166     eV
 
Calculating total energy with cut-off of  595.000 eV.
------------------------------------------------------------------------ <-- SCF
SCF loop      Energy           Fermi           Energy gain       Timer   <-- SCF
                               energy          per atom          (sec)   <-- SCF
------------------------------------------------------------------------ <-- SCF
Initial  -3.08653797E+003  0.00000000E+000                        52.69  <-- SCF
      1  -3.08678823E+003  9.88926817E+000   2.50255045E-002      55.81  <-- SCF
      2  -3.08678833E+003  9.88926815E+000   1.04427446E-005      59.53  <-- SCF
      3  -3.08678840E+003  9.89405708E+000   6.62262347E-006      63.24  <-- SCF
      4  -3.08678836E+003  9.89163089E+000  -3.44917581E-006      65.93  <-- SCF
------------------------------------------------------------------------ <-- SCF
 
Final energy, E             =  -3086.788362696     eV
Final free energy (E-TS)    =  -3086.788362696     eV
(energies not corrected for finite basis set)
 
NB est. 0K energy (E-0.5TS)      =  -3086.788362696     eV
 
Calculating total energy with cut-off of  600.000 eV.
------------------------------------------------------------------------ <-- SCF
SCF loop      Energy           Fermi           Energy gain       Timer   <-- SCF
                               energy          per atom          (sec)   <-- SCF
------------------------------------------------------------------------ <-- SCF
Initial  -3.08678838E+003  0.00000000E+000                        66.92  <-- SCF
      1  -3.08699512E+003  9.89125559E+000   2.06746647E-002      70.08  <-- SCF
      2  -3.08699521E+003  9.89125553E+000   8.72587141E-006      73.69  <-- SCF
      3  -3.08699526E+003  9.89568115E+000   4.83663018E-006      77.29  <-- SCF
      4  -3.08699523E+003  9.89350736E+000  -2.92493599E-006      79.95  <-- SCF
------------------------------------------------------------------------ <-- SCF
 
Final energy, E             =  -3086.995229798     eV
Final free energy (E-TS)    =  -3086.995229798     eV
(energies not corrected for finite basis set)
 
NB est. 0K energy (E-0.5TS)      =  -3086.995229798     eV
 
 For future reference: finite basis dEtot/dlog(Ecut) =     -27.732661eV
 Total energy corrected for finite basis set =   -3087.003384 eV
 
+---------------- MEMORY AND SCRATCH DISK ESTIMATES PER PROCESS --------------+
|                                                     Memory          Disk    |
| Model and support data                              145.8 MB         0.0 MB |
| Electronic energy minimisation requirements          48.0 MB         0.0 MB |
| Geometry minimisation requirements                   64.7 MB         0.0 MB |
|                                               ----------------------------- |
| Approx. total storage required per process          258.5 MB         0.0 MB |
|                                                                             |
| Requirements will fluctuate during execution and may exceed these estimates |
+-----------------------------------------------------------------------------+
 

 ************************************** Forces **************************************
 *                                                                                  *
 *                           Cartesian components (eV/A)                            *
 * -------------------------------------------------------------------------------- *
 *                         x                    y                    z              *
 *                                                                                  *
 * O               1      0.02896              0.00001             -0.00001         *
 * O               2     -0.01449             -0.02508              0.00001         *
 * O               3     -0.01448              0.02507             -0.00000         *
 * O               4      0.01448              0.02508             -0.00000         *
 * O               5      0.01449             -0.02508              0.00001         *
 * O               6     -0.02896             -0.00000             -0.00000         *
 * Al              1      0.00000              0.00000              0.01223         *
 * Al              2      0.00000             -0.00000              0.01224         *
 * Al              3      0.00000             -0.00001             -0.01224         *
 * Al              4     -0.00000              0.00000             -0.01224         *
 *                                                                                  *
 ************************************************************************************

 ***************** Stress Tensor *****************
 *                                               *
 *          Cartesian components (GPa)           *
 * --------------------------------------------- *
 *             x             y             z     *
 *                                               *
 *  x     -5.217775     -0.000007      0.000023  *
 *  y     -0.000007     -5.217834      0.000010  *
 *  z      0.000023      0.000010     -4.825202  *
 *                                               *
 *  Pressure:    5.0869                          *
 *                                               *
 *************************************************
 LBFGS: finished iteration     0 with enthalpy= -3.08700338E+003 eV
  
 +-----------+-----------------+-----------------+------------+-----+ <-- LBFGS
 | Parameter |      value      |    tolerance    |    units   | OK? | <-- LBFGS
 +-----------+-----------------+-----------------+------------+-----+ <-- LBFGS
 |  dE/ion   |   0.000000E+000 |   1.000000E-005 |         eV | No  | <-- LBFGS
 |  |F|max   |   2.896945E-002 |   1.000000E-002 |       eV/A | No  | <-- LBFGS
 |  |dR|max  |   0.000000E+000 |   1.000000E-003 |          A | No  | <-- LBFGS
 |   Smax    |   5.217834E+000 |   1.000000E-001 |        GPa | No  | <-- LBFGS
 +-----------+-----------------+-----------------+------------+-----+ <-- LBFGS
  

================================================================================
 Starting LBFGS iteration          1 ...
================================================================================
  
 +------------+-------------+-------------+-----------------+ <-- min LBFGS
 |    Step    |   lambda    |   F.delta'  |    enthalpy     | <-- min LBFGS
 +------------+-------------+-------------+-----------------+ <-- min LBFGS
 |  previous  |    0.000000 |    0.172018 |    -3087.003384 | <-- min LBFGS
 +------------+-------------+-------------+-----------------+ <-- min LBFGS
  

--------------------------------------------------------------------------------
 LBFGS: starting iteration         1 with trial guess (lambda=  1.000000)
--------------------------------------------------------------------------------
 
+---------------- MEMORY AND SCRATCH DISK ESTIMATES PER PROCESS --------------+
|                                                     Memory          Disk    |
| Model and support data                              146.0 MB         0.0 MB |
| Electronic energy minimisation requirements          48.3 MB         0.0 MB |
| Geometry minimisation requirements                   65.2 MB         0.0 MB |
|                                               ----------------------------- |
| Approx. total storage required per process          259.5 MB         0.0 MB |
|                                                                             |
| Requirements will fluctuate during execution and may exceed these estimates |
+-----------------------------------------------------------------------------+
 

                           -------------------------------
                                      Unit Cell
                           -------------------------------
        Real Lattice(A)              Reciprocal Lattice(1/A)
     2.3883792     1.3789310     4.3449319        1.315365935   0.759426865   0.482031820
    -2.3883793     1.3789310     4.3449320       -1.315365928   0.759426878   0.482031780
    -0.0000001    -2.7578632     4.3449320        0.000000015  -1.518853733   0.482031610

                       Lattice parameters(A)       Cell Angles
                    a =      5.146284          alpha =   55.303698
                    b =      5.146284          beta  =   55.303699
                    c =      5.146284          gamma =   55.303700

                Current cell volume =            85.857883 A**3
                            density =             2.375118 amu/A**3
                                    =             3.943975 g/cm^3

                           -------------------------------
                                     Cell Contents
                           -------------------------------

            xxxxxxxxxxxxxxxxxxxxxxxxxxxxxxxxxxxxxxxxxxxxxxxxxxxxxxxxxxxxxxxxx
            x  Element         Atom        Fractional coordinates of atoms  x
            x                 Number           u          v          w      x
            x---------------------------------------------------------------x
            x  O                 1         0.556289   0.943711   0.250000   x
            x  O                 2         0.943711   0.250000   0.556289   x
            x  O                 3         0.250000   0.556289   0.943711   x
            x  O                 4         0.056289   0.750000   0.443711   x
            x  O                 5         0.750000   0.443711   0.056289   x
            x  O                 6         0.443711   0.056289   0.750000   x
            x  Al                1         0.147905   0.147905   0.147904   x
            x  Al                2         0.647905   0.647905   0.647904   x
            x  Al                3         0.852096   0.852096   0.852095   x
            x  Al                4         0.352096   0.352096   0.352095   x
            xxxxxxxxxxxxxxxxxxxxxxxxxxxxxxxxxxxxxxxxxxxxxxxxxxxxxxxxxxxxxxxxx


------------------------------------------------------------------------ <-- SCF
SCF loop      Energy           Fermi           Energy gain       Timer   <-- SCF
                               energy          per atom          (sec)   <-- SCF
------------------------------------------------------------------------ <-- SCF
Initial  -3.08672981E+003  0.00000000E+000                        88.99  <-- SCF
      1  -3.08708973E+003  9.57630387E+000   3.59922680E-002      93.33  <-- SCF
      2  -3.08709060E+003  9.57624231E+000   8.66863500E-005      98.12  <-- SCF
      3  -3.08705732E+003  9.74116115E+000  -3.32779991E-003     102.70  <-- SCF
      4  -3.08701200E+003  9.66794170E+000  -4.53165539E-003     106.71  <-- SCF
      5  -3.08701266E+003  9.66649251E+000   6.54511770E-005     111.06  <-- SCF
      6  -3.08701265E+003  9.66718367E+000  -5.19446710E-007     113.87  <-- SCF
      7  -3.08701264E+003  9.66926874E+000  -7.51334896E-007     116.42  <-- SCF
------------------------------------------------------------------------ <-- SCF
 
Final energy, E             =  -3087.012643517     eV
Final free energy (E-TS)    =  -3087.012643517     eV
(energies not corrected for finite basis set)
 
NB est. 0K energy (E-0.5TS)      =  -3087.012643517     eV
 

 ************************************** Forces **************************************
 *                                                                                  *
 *                           Cartesian components (eV/A)                            *
 * -------------------------------------------------------------------------------- *
 *                         x                    y                    z              *
 *                                                                                  *
 * O               1      0.02229              0.00001              0.00001         *
 * O               2     -0.01116             -0.01934              0.00000         *
 * O               3     -0.01116              0.01927              0.00002         *
 * O               4      0.01119              0.01940              0.00000         *
 * O               5      0.01116             -0.01933             -0.00002         *
 * O               6     -0.02231             -0.00000             -0.00001         *
 * Al              1     -0.00000              0.00004              0.00467         *
 * Al              2     -0.00002             -0.00002              0.00464         *
 * Al              3      0.00000             -0.00003             -0.00464         *
 * Al              4      0.00002              0.00001             -0.00467         *
 *                                                                                  *
 ************************************************************************************

 ***************** Stress Tensor *****************
 *                                               *
 *          Cartesian components (GPa)           *
 * --------------------------------------------- *
 *             x             y             z     *
 *                                               *
 *  x     -2.594121     -0.000008      0.000039  *
 *  y     -0.000008     -2.594159     -0.000121  *
 *  z      0.000039     -0.000121     -2.474723  *
 *                                               *
 *  Pressure:    2.5543                          *
 *                                               *
 *************************************************
  
 +------------+-------------+-------------+-----------------+ <-- min LBFGS
 |    Step    |   lambda    |   F.delta'  |    enthalpy     | <-- min LBFGS
 +------------+-------------+-------------+-----------------+ <-- min LBFGS
 |  previous  |    0.000000 |    0.172018 |    -3087.003384 | <-- min LBFGS
 | trial step |    1.000000 |    0.086955 |    -3087.010197 | <-- min LBFGS
 +------------+-------------+-------------+-----------------+ <-- min LBFGS
  

--------------------------------------------------------------------------------
 LBFGS: improving iteration         1 with line minimization (lambda=  2.022255)
--------------------------------------------------------------------------------
 
+---------------- MEMORY AND SCRATCH DISK ESTIMATES PER PROCESS --------------+
|                                                     Memory          Disk    |
| Model and support data                              177.0 MB         0.0 MB |
| Electronic energy minimisation requirements          50.7 MB         0.0 MB |
| Geometry minimisation requirements                   68.0 MB         0.0 MB |
|                                               ----------------------------- |
| Approx. total storage required per process          295.7 MB         0.0 MB |
|                                                                             |
| Requirements will fluctuate during execution and may exceed these estimates |
+-----------------------------------------------------------------------------+
 

                           -------------------------------
                                      Unit Cell
                           -------------------------------
        Real Lattice(A)              Reciprocal Lattice(1/A)
     2.3968426     1.3838175     4.3591739        1.310721258   0.756745224   0.480456980
    -2.3968428     1.3838174     4.3591741       -1.310721244   0.756745250   0.480456900
    -0.0000002    -2.7676361     4.3591740        0.000000030  -1.513490454   0.480456735

                       Lattice parameters(A)       Cell Angles
                    a =      5.163546          alpha =   55.315034
                    b =      5.163546          beta  =   55.315037
                    c =      5.163546          gamma =   55.315036

                Current cell volume =            86.750885 A**3
                            density =             2.350668 amu/A**3
                                    =             3.903377 g/cm^3

                           -------------------------------
                                     Cell Contents
                           -------------------------------

            xxxxxxxxxxxxxxxxxxxxxxxxxxxxxxxxxxxxxxxxxxxxxxxxxxxxxxxxxxxxxxxxx
            x  Element         Atom        Fractional coordinates of atoms  x
            x                 Number           u          v          w      x
            x---------------------------------------------------------------x
            x  O                 1         0.556319   0.943681   0.250000   x
            x  O                 2         0.943681   0.250000   0.556319   x
            x  O                 3         0.250000   0.556319   0.943681   x
            x  O                 4         0.056319   0.750000   0.443681   x
            x  O                 5         0.750000   0.443681   0.056319   x
            x  O                 6         0.443681   0.056319   0.750000   x
            x  Al                1         0.147909   0.147909   0.147909   x
            x  Al                2         0.647909   0.647909   0.647909   x
            x  Al                3         0.852091   0.852091   0.852091   x
            x  Al                4         0.352091   0.352091   0.352091   x
            xxxxxxxxxxxxxxxxxxxxxxxxxxxxxxxxxxxxxxxxxxxxxxxxxxxxxxxxxxxxxxxxx


------------------------------------------------------------------------ <-- SCF
SCF loop      Energy           Fermi           Energy gain       Timer   <-- SCF
                               energy          per atom          (sec)   <-- SCF
------------------------------------------------------------------------ <-- SCF
Initial  -3.08672463E+003  0.00000000E+000                       126.98  <-- SCF
      1  -3.08708580E+003  9.34758653E+000   3.61175944E-002     132.45  <-- SCF
      2  -3.08708666E+003  9.34752279E+000   8.59697798E-005     138.41  <-- SCF
      3  -3.08705280E+003  9.51558991E+000  -3.38582624E-003     144.15  <-- SCF
      4  -3.08700451E+003  9.44062277E+000  -4.82913222E-003     149.25  <-- SCF
      5  -3.08700520E+003  9.43923391E+000   6.91831754E-005     154.72  <-- SCF
      6  -3.08700520E+003  9.43991276E+000  -3.78642154E-007     158.23  <-- SCF
      7  -3.08700519E+003  9.44194600E+000  -8.54113675E-007     161.75  <-- SCF
------------------------------------------------------------------------ <-- SCF
 
Final energy, E             =  -3087.005191195     eV
Final free energy (E-TS)    =  -3087.005191195     eV
(energies not corrected for finite basis set)
 
NB est. 0K energy (E-0.5TS)      =  -3087.005191195     eV
 

 ************************************** Forces **************************************
 *                                                                                  *
 *                           Cartesian components (eV/A)                            *
 * -------------------------------------------------------------------------------- *
 *                         x                    y                    z              *
 *                                                                                  *
 * O               1      0.01515              0.00001             -0.00000         *
 * O               2     -0.00758             -0.01317             -0.00000         *
 * O               3     -0.00758              0.01313              0.00000         *
 * O               4      0.00762              0.01322              0.00000         *
 * O               5      0.00760             -0.01318             -0.00000         *
 * O               6     -0.01520             -0.00002              0.00000         *
 * Al              1     -0.00000              0.00004             -0.00260         *
 * Al              2     -0.00003             -0.00002             -0.00265         *
 * Al              3      0.00000             -0.00003              0.00265         *
 * Al              4      0.00002              0.00001              0.00260         *
 *                                                                                  *
 ************************************************************************************

 ***************** Stress Tensor *****************
 *                                               *
 *          Cartesian components (GPa)           *
 * --------------------------------------------- *
 *             x             y             z     *
 *                                               *
 *  x     -0.079673     -0.000011      0.000048  *
 *  y     -0.000011     -0.079647     -0.000089  *
 *  z      0.000048     -0.000089     -0.324494  *
 *                                               *
 *  Pressure:    0.1613                          *
 *                                               *
 *************************************************
  
 +------------+-------------+-------------+-----------------+ <-- min LBFGS
 |    Step    |   lambda    |   F.delta'  |    enthalpy     | <-- min LBFGS
 +------------+-------------+-------------+-----------------+ <-- min LBFGS
 |  previous  |    0.000000 |    0.172018 |    -3087.003384 | <-- min LBFGS
 | trial step |    1.000000 |    0.086955 |    -3087.010197 | <-- min LBFGS
 |  line step |    2.022255 |    0.005449 |    -3087.001685 | <-- min LBFGS
 +------------+-------------+-------------+-----------------+ <-- min LBFGS
  
 LBFGS: finished iteration     1 with enthalpy= -3.08700169E+003 eV
  
 +-----------+-----------------+-----------------+------------+-----+ <-- LBFGS
 | Parameter |      value      |    tolerance    |    units   | OK? | <-- LBFGS
 +-----------+-----------------+-----------------+------------+-----+ <-- LBFGS
 |  dE/ion   |   1.699249E-004 |   1.000000E-005 |         eV | No  | <-- LBFGS
 |  |F|max   |   1.525362E-002 |   1.000000E-002 |       eV/A | No  | <-- LBFGS
 |  |dR|max  |   2.828244E-004 |   1.000000E-003 |          A | Yes | <-- LBFGS
 |   Smax    |   3.244937E-001 |   1.000000E-001 |        GPa | No  | <-- LBFGS
 +-----------+-----------------+-----------------+------------+-----+ <-- LBFGS
  

================================================================================
 Starting LBFGS iteration          2 ...
================================================================================
  
 +------------+-------------+-------------+-----------------+ <-- min LBFGS
 |    Step    |   lambda    |   F.delta'  |    enthalpy     | <-- min LBFGS
 +------------+-------------+-------------+-----------------+ <-- min LBFGS
 |  previous  |    0.000000 |    0.007079 |    -3087.001685 | <-- min LBFGS
 +------------+-------------+-------------+-----------------+ <-- min LBFGS
  

--------------------------------------------------------------------------------
 LBFGS: starting iteration         2 with trial guess (lambda=  1.000000)
--------------------------------------------------------------------------------
 
+---------------- MEMORY AND SCRATCH DISK ESTIMATES PER PROCESS --------------+
|                                                     Memory          Disk    |
| Model and support data                              177.1 MB         0.0 MB |
| Electronic energy minimisation requirements          50.8 MB         0.0 MB |
| Geometry minimisation requirements                   68.1 MB         0.0 MB |
|                                               ----------------------------- |
| Approx. total storage required per process          296.0 MB         0.0 MB |
|                                                                             |
| Requirements will fluctuate during execution and may exceed these estimates |
+-----------------------------------------------------------------------------+
 

                           -------------------------------
                                      Unit Cell
                           -------------------------------
        Real Lattice(A)              Reciprocal Lattice(1/A)
     2.3972587     1.3840581     4.3606330        1.310493650   0.756613781   0.480296214
    -2.3972593     1.3840580     4.3606333       -1.310493615   0.756613828   0.480296045
    -0.0000003    -2.7681165     4.3606330        0.000000058  -1.513227679   0.480296064

                       Lattice parameters(A)       Cell Angles
                    a =      5.165035          alpha =   55.308143
                    b =      5.165035          beta  =   55.308148
                    c =      5.165035          gamma =   55.308144

                Current cell volume =            86.810068 A**3
                            density =             2.349066 amu/A**3
                                    =             3.900715 g/cm^3

                           -------------------------------
                                     Cell Contents
                           -------------------------------

            xxxxxxxxxxxxxxxxxxxxxxxxxxxxxxxxxxxxxxxxxxxxxxxxxxxxxxxxxxxxxxxxx
            x  Element         Atom        Fractional coordinates of atoms  x
            x                 Number           u          v          w      x
            x---------------------------------------------------------------x
            x  O                 1         0.556336   0.943664   0.250000   x
            x  O                 2         0.943664   0.250000   0.556336   x
            x  O                 3         0.250000   0.556336   0.943664   x
            x  O                 4         0.056336   0.750000   0.443664   x
            x  O                 5         0.750000   0.443664   0.056336   x
            x  O                 6         0.443664   0.056336   0.750000   x
            x  Al                1         0.147908   0.147908   0.147908   x
            x  Al                2         0.647908   0.647908   0.647908   x
            x  Al                3         0.852092   0.852092   0.852092   x
            x  Al                4         0.352092   0.352092   0.352092   x
            xxxxxxxxxxxxxxxxxxxxxxxxxxxxxxxxxxxxxxxxxxxxxxxxxxxxxxxxxxxxxxxxx


------------------------------------------------------------------------ <-- SCF
SCF loop      Energy           Fermi           Energy gain       Timer   <-- SCF
                               energy          per atom          (sec)   <-- SCF
------------------------------------------------------------------------ <-- SCF
Initial  -3.08699208E+003  0.00000000E+000                       174.35  <-- SCF
      1  -3.08700592E+003  9.41963511E+000   1.38383594E-003     179.08  <-- SCF
      2  -3.08700594E+003  9.41963494E+000   2.00242798E-006     183.11  <-- SCF
      3  -3.08700573E+003  9.43148956E+000  -2.08543073E-005     188.90  <-- SCF
      4  -3.08700551E+003  9.42637865E+000  -2.21215605E-005     193.51  <-- SCF
      5  -3.08700551E+003  9.42638632E+000   2.77249529E-007     196.71  <-- SCF
      6  -3.08700551E+003  9.42640880E+000   3.39428752E-008     199.90  <-- SCF
------------------------------------------------------------------------ <-- SCF
 
Final energy, E             =  -3087.005514551     eV
Final free energy (E-TS)    =  -3087.005514551     eV
(energies not corrected for finite basis set)
 
NB est. 0K energy (E-0.5TS)      =  -3087.005514551     eV
 

 ************************************** Forces **************************************
 *                                                                                  *
 *                           Cartesian components (eV/A)                            *
 * -------------------------------------------------------------------------------- *
 *                         x                    y                    z              *
 *                                                                                  *
 * O               1      0.01359              0.00000              0.00000         *
 * O               2     -0.00680             -0.01177             -0.00000         *
 * O               3     -0.00680              0.01177             -0.00000         *
 * O               4      0.00680              0.01177              0.00000         *
 * O               5      0.00680             -0.01176             -0.00000         *
 * O               6     -0.01358             -0.00000              0.00000         *
 * Al              1      0.00000              0.00000             -0.00139         *
 * Al              2      0.00000             -0.00000             -0.00138         *
 * Al              3      0.00000             -0.00000              0.00138         *
 * Al              4     -0.00000              0.00000              0.00139         *
 *                                                                                  *
 ************************************************************************************

 ***************** Stress Tensor *****************
 *                                               *
 *          Cartesian components (GPa)           *
 * --------------------------------------------- *
 *             x             y             z     *
 *                                               *
 *  x     -0.058611     -0.000007     -0.000028  *
 *  y     -0.000007     -0.058600     -0.000004  *
 *  z     -0.000028     -0.000004     -0.301836  *
 *                                               *
 *  Pressure:    0.1397                          *
 *                                               *
 *************************************************
  
 +------------+-------------+-------------+-----------------+ <-- min LBFGS
 |    Step    |   lambda    |   F.delta'  |    enthalpy     | <-- min LBFGS
 +------------+-------------+-------------+-----------------+ <-- min LBFGS
 |  previous  |    0.000000 |    0.007079 |    -3087.001685 | <-- min LBFGS
 | trial step |    1.000000 |    0.006306 |    -3087.000786 | <-- min LBFGS
 +------------+-------------+-------------+-----------------+ <-- min LBFGS
  

--------------------------------------------------------------------------------
 LBFGS: improving iteration         2 with line minimization (lambda=  9.158356)
--------------------------------------------------------------------------------
 
+---------------- MEMORY AND SCRATCH DISK ESTIMATES PER PROCESS --------------+
|                                                     Memory          Disk    |
| Model and support data                              177.1 MB         0.0 MB |
| Electronic energy minimisation requirements          50.8 MB         0.0 MB |
| Geometry minimisation requirements                   68.2 MB         0.0 MB |
|                                               ----------------------------- |
| Approx. total storage required per process          296.0 MB         0.0 MB |
|                                                                             |
| Requirements will fluctuate during execution and may exceed these estimates |
+-----------------------------------------------------------------------------+
 

                           -------------------------------
                                      Unit Cell
                           -------------------------------
        Real Lattice(A)              Reciprocal Lattice(1/A)
     2.4006540     1.3860211     4.3725369        1.308639690   0.755543128   0.478988636
    -2.4006567     1.3860207     4.3725385       -1.308639490   0.755543347   0.478987744
    -0.0000017    -2.7720357     4.3725354        0.000000290  -1.511087264   0.478989259

                       Lattice parameters(A)       Cell Angles
                    a =      5.177188          alpha =   55.252067
                    b =      5.177190          beta  =   55.252090
                    c =      5.177185          gamma =   55.252062

                Current cell volume =            87.293860 A**3
                            density =             2.336047 amu/A**3
                                    =             3.879097 g/cm^3

                           -------------------------------
                                     Cell Contents
                           -------------------------------

            xxxxxxxxxxxxxxxxxxxxxxxxxxxxxxxxxxxxxxxxxxxxxxxxxxxxxxxxxxxxxxxxx
            x  Element         Atom        Fractional coordinates of atoms  x
            x                 Number           u          v          w      x
            x---------------------------------------------------------------x
            x  O                 1         0.556474   0.943527   0.250000   x
            x  O                 2         0.943526   0.250000   0.556474   x
            x  O                 3         0.250000   0.556474   0.943526   x
            x  O                 4         0.056474   0.750000   0.443525   x
            x  O                 5         0.750000   0.443526   0.056474   x
            x  O                 6         0.443526   0.056474   0.750000   x
            x  Al                1         0.147902   0.147902   0.147901   x
            x  Al                2         0.647901   0.647901   0.647901   x
            x  Al                3         0.852099   0.852099   0.852099   x
            x  Al                4         0.352099   0.352099   0.352098   x
            xxxxxxxxxxxxxxxxxxxxxxxxxxxxxxxxxxxxxxxxxxxxxxxxxxxxxxxxxxxxxxxxx


------------------------------------------------------------------------ <-- SCF
SCF loop      Energy           Fermi           Energy gain       Timer   <-- SCF
                               energy          per atom          (sec)   <-- SCF
------------------------------------------------------------------------ <-- SCF
Initial  -3.08686591E+003  0.00000000E+000                       212.55  <-- SCF
      1  -3.08702145E+003  9.25531721E+000   1.55540763E-002     217.66  <-- SCF
      2  -3.08702243E+003  9.25527718E+000   9.80321872E-005     223.41  <-- SCF
      3  -3.08701087E+003  9.34672151E+000  -1.15618534E-003     228.96  <-- SCF
      4  -3.08699711E+003  9.30646675E+000  -1.37515677E-003     233.98  <-- SCF
      5  -3.08699734E+003  9.30575858E+000   2.23052899E-005     239.55  <-- SCF
      6  -3.08699733E+003  9.30629333E+000  -6.02271303E-007     242.93  <-- SCF
      7  -3.08699733E+003  9.30771147E+000  -2.29483897E-007     246.09  <-- SCF
------------------------------------------------------------------------ <-- SCF
 
Final energy, E             =  -3086.997329203     eV
Final free energy (E-TS)    =  -3086.997329203     eV
(energies not corrected for finite basis set)
 
NB est. 0K energy (E-0.5TS)      =  -3086.997329203     eV
 

 ************************************** Forces **************************************
 *                                                                                  *
 *                           Cartesian components (eV/A)                            *
 * -------------------------------------------------------------------------------- *
 *                         x                    y                    z              *
 *                                                                                  *
 * O               1     -0.00089             -0.00001              0.00002         *
 * O               2      0.00043              0.00077              0.00001         *
 * O               3      0.00043             -0.00077             -0.00000         *
 * O               4     -0.00045             -0.00079             -0.00001         *
 * O               5     -0.00045              0.00079              0.00000         *
 * O               6      0.00091              0.00000             -0.00002         *
 * Al              1      0.00000             -0.00002              0.00777         *
 * Al              2      0.00003              0.00001              0.00782         *
 * Al              3      0.00000              0.00002             -0.00782         *
 * Al              4     -0.00002             -0.00000             -0.00777         *
 *                                                                                  *
 ************************************************************************************

 ***************** Stress Tensor *****************
 *                                               *
 *          Cartesian components (GPa)           *
 * --------------------------------------------- *
 *             x             y             z     *
 *                                               *
 *  x      1.175042      0.000043     -0.000178  *
 *  y      0.000043      1.174966      0.000202  *
 *  z     -0.000178      0.000202      1.348272  *
 *                                               *
 *  Pressure:   -1.2328                          *
 *                                               *
 *************************************************
  
 +------------+-------------+-------------+-----------------+ <-- min LBFGS
 |    Step    |   lambda    |   F.delta'  |    enthalpy     | <-- min LBFGS
 +------------+-------------+-------------+-----------------+ <-- min LBFGS
 |  previous  |    0.000000 |    0.007079 |    -3087.001685 | <-- min LBFGS
 | trial step |    1.000000 |    0.006306 |    -3087.000786 | <-- min LBFGS
 |  line step |    9.158356 |   -0.040746 |    -3086.990721 | <-- min LBFGS
 +------------+-------------+-------------+-----------------+ <-- min LBFGS
  

--------------------------------------------------------------------------------
 LBFGS: improving iteration         2 with quad minimization (lambda=  2.093460)
--------------------------------------------------------------------------------

                           -------------------------------
                                      Unit Cell
                           -------------------------------
        Real Lattice(A)              Reciprocal Lattice(1/A)
     2.3977138     1.3843212     4.3622285        1.310244860   0.756470106   0.480120546
    -2.3977146     1.3843211     4.3622290       -1.310244803   0.756470176   0.480120280
    -0.0000005    -2.7686418     4.3622282        0.000000089  -1.512940448   0.480120500

                       Lattice parameters(A)       Cell Angles
                    a =      5.166664          alpha =   55.300612
                    b =      5.166664          beta  =   55.300619
                    c =      5.166664          gamma =   55.300612

                Current cell volume =            86.874812 A**3
                            density =             2.347315 amu/A**3
                                    =             3.897808 g/cm^3

                           -------------------------------
                                     Cell Contents
                           -------------------------------

            xxxxxxxxxxxxxxxxxxxxxxxxxxxxxxxxxxxxxxxxxxxxxxxxxxxxxxxxxxxxxxxxx
            x  Element         Atom        Fractional coordinates of atoms  x
            x                 Number           u          v          w      x
            x---------------------------------------------------------------x
            x  O                 1         0.556354   0.943646   0.250000   x
            x  O                 2         0.943646   0.250000   0.556354   x
            x  O                 3         0.250000   0.556354   0.943646   x
            x  O                 4         0.056354   0.750000   0.443645   x
            x  O                 5         0.750000   0.443646   0.056354   x
            x  O                 6         0.443646   0.056355   0.750000   x
            x  Al                1         0.147907   0.147907   0.147907   x
            x  Al                2         0.647907   0.647907   0.647907   x
            x  Al                3         0.852093   0.852093   0.852093   x
            x  Al                4         0.352093   0.352093   0.352092   x
            xxxxxxxxxxxxxxxxxxxxxxxxxxxxxxxxxxxxxxxxxxxxxxxxxxxxxxxxxxxxxxxxx


------------------------------------------------------------------------ <-- SCF
SCF loop      Energy           Fermi           Energy gain       Timer   <-- SCF
                               energy          per atom          (sec)   <-- SCF
------------------------------------------------------------------------ <-- SCF
Initial  -3.08698492E+003  0.00000000E+000                       258.67  <-- SCF
      1  -3.08701574E+003  9.44773496E+000   3.08231013E-003     264.39  <-- SCF
      2  -3.08701588E+003  9.44772011E+000   1.37582489E-005     269.82  <-- SCF
      3  -3.08700991E+003  9.38258498E+000  -5.96897909E-004     275.33  <-- SCF
      4  -3.08700311E+003  9.41082376E+000  -6.80148147E-004     280.40  <-- SCF
      5  -3.08700321E+003  9.41140870E+000   1.02075532E-005     285.74  <-- SCF
      6  -3.08700321E+003  9.41100676E+000  -2.87901834E-007     289.00  <-- SCF
      7  -3.08700321E+003  9.40996565E+000  -1.17871294E-007     292.13  <-- SCF
------------------------------------------------------------------------ <-- SCF
 
Final energy, E             =  -3087.003205868     eV
Final free energy (E-TS)    =  -3087.003205868     eV
(energies not corrected for finite basis set)
 
NB est. 0K energy (E-0.5TS)      =  -3087.003205868     eV
 

 ************************************** Forces **************************************
 *                                                                                  *
 *                           Cartesian components (eV/A)                            *
 * -------------------------------------------------------------------------------- *
 *                         x                    y                    z              *
 *                                                                                  *
 * O               1      0.01144             -0.00000             -0.00000         *
 * O               2     -0.00571             -0.00988              0.00000         *
 * O               3     -0.00572              0.00990             -0.00000         *
 * O               4      0.00569              0.00986              0.00000         *
 * O               5      0.00571             -0.00987             -0.00000         *
 * O               6     -0.01141              0.00000              0.00000         *
 * Al              1      0.00000             -0.00002             -0.00016         *
 * Al              2      0.00002              0.00001             -0.00013         *
 * Al              3     -0.00000              0.00001              0.00013         *
 * Al              4     -0.00002             -0.00001              0.00016         *
 *                                                                                  *
 ************************************************************************************

 ***************** Stress Tensor *****************
 *                                               *
 *          Cartesian components (GPa)           *
 * --------------------------------------------- *
 *             x             y             z     *
 *                                               *
 *  x     -0.021962      0.000037     -0.000084  *
 *  y      0.000037     -0.021923      0.000048  *
 *  z     -0.000084      0.000048     -0.185402  *
 *                                               *
 *  Pressure:    0.0764                          *
 *                                               *
 *************************************************
  
 +------------+-------------+-------------+-----------------+ <-- min LBFGS
 |    Step    |   lambda    |   F.delta'  |    enthalpy     | <-- min LBFGS
 +------------+-------------+-------------+-----------------+ <-- min LBFGS
 |  previous  |    0.000000 |    0.007079 |    -3087.001685 | <-- min LBFGS
 | trial step |    1.000000 |    0.006306 |    -3087.000786 | <-- min LBFGS
 |  line step |    9.158356 |   -0.040746 |    -3086.990721 | <-- min LBFGS
 |  quad step |    2.093460 |    0.003772 |    -3086.999857 | <-- min LBFGS
 +------------+-------------+-------------+-----------------+ <-- min LBFGS
  
 LBFGS: finished iteration     2 with enthalpy= -3.08699986E+003 eV
  
 +-----------+-----------------+-----------------+------------+-----+ <-- LBFGS
 | Parameter |      value      |    tolerance    |    units   | OK? | <-- LBFGS
 +-----------+-----------------+-----------------+------------+-----+ <-- LBFGS
 |  dE/ion   |   1.828084E-004 |   1.000000E-005 |         eV | No  | <-- LBFGS
 |  |F|max   |   1.143965E-002 |   1.000000E-002 |       eV/A | No  | <-- LBFGS
 |  |dR|max  |   1.704280E-004 |   1.000000E-003 |          A | Yes | <-- LBFGS
 |   Smax    |   1.854023E-001 |   1.000000E-001 |        GPa | No  | <-- LBFGS
 +-----------+-----------------+-----------------+------------+-----+ <-- LBFGS
  

================================================================================
 Starting LBFGS iteration          3 ...
================================================================================
  
 +------------+-------------+-------------+-----------------+ <-- min LBFGS
 |    Step    |   lambda    |   F.delta'  |    enthalpy     | <-- min LBFGS
 +------------+-------------+-------------+-----------------+ <-- min LBFGS
 |  previous  |    0.000000 |    0.003939 |    -3086.999857 | <-- min LBFGS
 +------------+-------------+-------------+-----------------+ <-- min LBFGS
  

--------------------------------------------------------------------------------
 LBFGS: starting iteration         3 with trial guess (lambda=  1.000000)
--------------------------------------------------------------------------------

                           -------------------------------
                                      Unit Cell
                           -------------------------------
        Real Lattice(A)              Reciprocal Lattice(1/A)
     2.3986231     1.3848458     4.3657986        1.309748323   0.756183542   0.479727843
    -2.3986233     1.3848459     4.3657987       -1.309748274   0.756183500   0.479727773
    -0.0000001    -2.7696911     4.3657981       -0.000000011  -1.512367225   0.479727921

                       Lattice parameters(A)       Cell Angles
                    a =      5.170241          alpha =   55.281827
                    b =      5.170241          beta  =   55.281827
                    c =      5.170240          gamma =   55.281826

                Current cell volume =            87.011837 A**3
                            density =             2.343619 amu/A**3
                                    =             3.891670 g/cm^3

                           -------------------------------
                                     Cell Contents
                           -------------------------------

            xxxxxxxxxxxxxxxxxxxxxxxxxxxxxxxxxxxxxxxxxxxxxxxxxxxxxxxxxxxxxxxxx
            x  Element         Atom        Fractional coordinates of atoms  x
            x                 Number           u          v          w      x
            x---------------------------------------------------------------x
            x  O                 1         0.556403   0.943598   0.250000   x
            x  O                 2         0.943598   0.250000   0.556402   x
            x  O                 3         0.250000   0.556402   0.943597   x
            x  O                 4         0.056403   0.750000   0.443597   x
            x  O                 5         0.750000   0.443598   0.056403   x
            x  O                 6         0.443597   0.056403   0.750000   x
            x  Al                1         0.147906   0.147906   0.147906   x
            x  Al                2         0.647906   0.647906   0.647906   x
            x  Al                3         0.852094   0.852094   0.852094   x
            x  Al                4         0.352094   0.352094   0.352094   x
            xxxxxxxxxxxxxxxxxxxxxxxxxxxxxxxxxxxxxxxxxxxxxxxxxxxxxxxxxxxxxxxxx


------------------------------------------------------------------------ <-- SCF
SCF loop      Energy           Fermi           Energy gain       Timer   <-- SCF
                               energy          per atom          (sec)   <-- SCF
------------------------------------------------------------------------ <-- SCF
Initial  -3.08697094E+003  0.00000000E+000                       304.80  <-- SCF
      1  -3.08700030E+003  9.36212778E+000   2.93571816E-003     309.41  <-- SCF
      2  -3.08700040E+003  9.36212446E+000   1.05248238E-005     314.35  <-- SCF
      3  -3.08699942E+003  9.38724556E+000  -9.83736838E-005     319.76  <-- SCF
      4  -3.08699842E+003  9.37630385E+000  -9.97107367E-005     324.77  <-- SCF
      5  -3.08699844E+003  9.37613879E+000   1.26369581E-006     327.83  <-- SCF
      6  -3.08699844E+003  9.37621024E+000   2.26060700E-007     330.90  <-- SCF
------------------------------------------------------------------------ <-- SCF
 
Final energy, E             =  -3086.998437290     eV
Final free energy (E-TS)    =  -3086.998437290     eV
(energies not corrected for finite basis set)
 
NB est. 0K energy (E-0.5TS)      =  -3086.998437290     eV
 

 ************************************** Forces **************************************
 *                                                                                  *
 *                           Cartesian components (eV/A)                            *
 * -------------------------------------------------------------------------------- *
 *                         x                    y                    z              *
 *                                                                                  *
 * O               1      0.00891             -0.00001              0.00000         *
 * O               2     -0.00447             -0.00772              0.00000         *
 * O               3     -0.00446              0.00771             -0.00001         *
 * O               4      0.00446              0.00771              0.00000         *
 * O               5      0.00445             -0.00770              0.00001         *
 * O               6     -0.00890              0.00000             -0.00000         *
 * Al              1     -0.00000             -0.00000              0.00301         *
 * Al              2      0.00001              0.00001              0.00303         *
 * Al              3      0.00000              0.00000             -0.00303         *
 * Al              4     -0.00001             -0.00000             -0.00301         *
 *                                                                                  *
 ************************************************************************************

 ***************** Stress Tensor *****************
 *                                               *
 *          Cartesian components (GPa)           *
 * --------------------------------------------- *
 *             x             y             z     *
 *                                               *
 *  x      0.453355      0.000000     -0.000025  *
 *  y      0.000000      0.453296      0.000037  *
 *  z     -0.000025      0.000037      0.419718  *
 *                                               *
 *  Pressure:   -0.4421                          *
 *                                               *
 *************************************************
  
 +------------+-------------+-------------+-----------------+ <-- min LBFGS
 |    Step    |   lambda    |   F.delta'  |    enthalpy     | <-- min LBFGS
 +------------+-------------+-------------+-----------------+ <-- min LBFGS
 |  previous  |    0.000000 |    0.003939 |    -3086.999857 | <-- min LBFGS
 | trial step |    1.000000 |   -0.013265 |    -3086.997336 | <-- min LBFGS
 +------------+-------------+-------------+-----------------+ <-- min LBFGS
  

--------------------------------------------------------------------------------
 LBFGS: improving iteration         3 with line minimization (lambda=  0.228943)
--------------------------------------------------------------------------------

                           -------------------------------
                                      Unit Cell
                           -------------------------------
        Real Lattice(A)              Reciprocal Lattice(1/A)
     2.3979220     1.3844413     4.3630458        1.310131148   0.756404480   0.480030582
    -2.3979227     1.3844412     4.3630462       -1.310131093   0.756404524   0.480030361
    -0.0000004    -2.7688820     4.3630455        0.000000066  -1.512809174   0.480030565

                       Lattice parameters(A)       Cell Angles
                    a =      5.167483          alpha =   55.296309
                    b =      5.167483          beta  =   55.296315
                    c =      5.167482          gamma =   55.296309

                Current cell volume =            86.906172 A**3
                            density =             2.346468 amu/A**3
                                    =             3.896402 g/cm^3

                           -------------------------------
                                     Cell Contents
                           -------------------------------

            xxxxxxxxxxxxxxxxxxxxxxxxxxxxxxxxxxxxxxxxxxxxxxxxxxxxxxxxxxxxxxxxx
            x  Element         Atom        Fractional coordinates of atoms  x
            x                 Number           u          v          w      x
            x---------------------------------------------------------------x
            x  O                 1         0.556365   0.943635   0.250000   x
            x  O                 2         0.943635   0.250000   0.556365   x
            x  O                 3         0.250000   0.556365   0.943635   x
            x  O                 4         0.056365   0.750000   0.443634   x
            x  O                 5         0.750000   0.443635   0.056365   x
            x  O                 6         0.443635   0.056366   0.750000   x
            x  Al                1         0.147907   0.147907   0.147907   x
            x  Al                2         0.647907   0.647907   0.647907   x
            x  Al                3         0.852093   0.852093   0.852093   x
            x  Al                4         0.352093   0.352093   0.352093   x
            xxxxxxxxxxxxxxxxxxxxxxxxxxxxxxxxxxxxxxxxxxxxxxxxxxxxxxxxxxxxxxxxx


------------------------------------------------------------------------ <-- SCF
SCF loop      Energy           Fermi           Energy gain       Timer   <-- SCF
                               energy          per atom          (sec)   <-- SCF
------------------------------------------------------------------------ <-- SCF
Initial  -3.08699922E+003  0.00000000E+000                       343.58  <-- SCF
      1  -3.08700182E+003  9.41223609E+000   2.59918575E-004     349.10  <-- SCF
      2  -3.08700183E+003  9.41223523E+000   1.11206826E-006     352.83  <-- SCF
      3  -3.08700138E+003  9.39556006E+000  -4.51232910E-005     358.31  <-- SCF
      4  -3.08700095E+003  9.40274754E+000  -4.28922280E-005     363.25  <-- SCF
      5  -3.08700096E+003  9.40284031E+000   4.93512679E-007     366.27  <-- SCF
      6  -3.08700096E+003  9.40278511E+000   9.68999397E-008     369.30  <-- SCF
------------------------------------------------------------------------ <-- SCF
 
Final energy, E             =  -3087.000956813     eV
Final free energy (E-TS)    =  -3087.000956813     eV
(energies not corrected for finite basis set)
 
NB est. 0K energy (E-0.5TS)      =  -3087.000956813     eV
 

 ************************************** Forces **************************************
 *                                                                                  *
 *                           Cartesian components (eV/A)                            *
 * -------------------------------------------------------------------------------- *
 *                         x                    y                    z              *
 *                                                                                  *
 * O               1      0.00904              0.00000              0.00000         *
 * O               2     -0.00452             -0.00783              0.00000         *
 * O               3     -0.00453              0.00783              0.00000         *
 * O               4      0.00451              0.00781             -0.00000         *
 * O               5      0.00452             -0.00782             -0.00000         *
 * O               6     -0.00902             -0.00000             -0.00000         *
 * Al              1     -0.00000             -0.00000              0.00046         *
 * Al              2      0.00001              0.00000              0.00048         *
 * Al              3     -0.00000              0.00000             -0.00048         *
 * Al              4     -0.00001             -0.00000             -0.00046         *
 *                                                                                  *
 ************************************************************************************

 ***************** Stress Tensor *****************
 *                                               *
 *          Cartesian components (GPa)           *
 * --------------------------------------------- *
 *             x             y             z     *
 *                                               *
 *  x      0.161181      0.000009     -0.000050  *
 *  y      0.000009      0.161170      0.000035  *
 *  z     -0.000050      0.000035      0.018279  *
 *                                               *
 *  Pressure:   -0.1135                          *
 *                                               *
 *************************************************
  
 +------------+-------------+-------------+-----------------+ <-- min LBFGS
 |    Step    |   lambda    |   F.delta'  |    enthalpy     | <-- min LBFGS
 +------------+-------------+-------------+-----------------+ <-- min LBFGS
 |  previous  |    0.000000 |    0.003939 |    -3086.999857 | <-- min LBFGS
 | trial step |    1.000000 |   -0.013265 |    -3086.997336 | <-- min LBFGS
 |  line step |    0.228943 |   -0.002276 |    -3086.999497 | <-- min LBFGS
 +------------+-------------+-------------+-----------------+ <-- min LBFGS
  

[...]
 *  x     -0.156182     -0.000036      0.000021  *
 *  y     -0.000036     -0.156201     -0.000006  *
 *  z      0.000021     -0.000006     -0.234082  *
 *                                               *
 *  Pressure:    0.1822                          *
 *                                               *
 *************************************************
  
 +------------+-------------+-------------+-----------------+ <-- min LBFGS
 |    Step    |   lambda    |   F.delta'  |    enthalpy     | <-- min LBFGS
 +------------+-------------+-------------+-----------------+ <-- min LBFGS
 |  previous  |    0.000000 |    0.003417 |    -3087.000310 | <-- min LBFGS
 | trial step |    1.000000 |   -0.021650 |    -3087.003991 | <-- min LBFGS
 |  line step |    0.136312 |   -0.005589 |    -3087.000970 | <-- min LBFGS
 +------------+-------------+-------------+-----------------+ <-- min LBFGS
  

--------------------------------------------------------------------------------
 LBFGS: improving iteration         7 with quad minimization (lambda=  0.004281)
--------------------------------------------------------------------------------

                           -------------------------------
                                      Unit Cell
                           -------------------------------
        Real Lattice(A)              Reciprocal Lattice(1/A)
     2.3972452     1.3840500     4.3629540        1.310501178   0.756618220   0.480040620
    -2.3972453     1.3840502     4.3629540       -1.310501117   0.756618104   0.480040638
     0.0000002    -2.7681004     4.3629537       -0.000000070  -1.513236420   0.480040606

                       Lattice parameters(A)       Cell Angles
                    a =      5.166986          alpha =   55.285131
                    b =      5.166986          beta  =   55.285127
                    c =      5.166986          gamma =   55.285128

                Current cell volume =            86.855271 A**3
                            density =             2.347843 amu/A**3
                                    =             3.898685 g/cm^3

                           -------------------------------
                                     Cell Contents
                           -------------------------------

            xxxxxxxxxxxxxxxxxxxxxxxxxxxxxxxxxxxxxxxxxxxxxxxxxxxxxxxxxxxxxxxxx
            x  Element         Atom        Fractional coordinates of atoms  x
            x                 Number           u          v          w      x
            x---------------------------------------------------------------x
            x  O                 1         0.556382   0.943618   0.250000   x
            x  O                 2         0.943618   0.250000   0.556382   x
            x  O                 3         0.250000   0.556382   0.943618   x
            x  O                 4         0.056382   0.750000   0.443618   x
            x  O                 5         0.750000   0.443618   0.056382   x
            x  O                 6         0.443618   0.056382   0.750000   x
            x  Al                1         0.147909   0.147909   0.147908   x
            x  Al                2         0.647909   0.647909   0.647909   x
            x  Al                3         0.852091   0.852091   0.852091   x
            x  Al                4         0.352091   0.352091   0.352091   x
            xxxxxxxxxxxxxxxxxxxxxxxxxxxxxxxxxxxxxxxxxxxxxxxxxxxxxxxxxxxxxxxxx


------------------------------------------------------------------------ <-- SCF
SCF loop      Energy           Fermi           Energy gain       Timer   <-- SCF
                               energy          per atom          (sec)   <-- SCF
------------------------------------------------------------------------ <-- SCF
Initial  -3.08699544E+003  0.00000000E+000                       801.22  <-- SCF
      1  -3.08700406E+003  9.41260649E+000   8.62800197E-004     806.34  <-- SCF
      2  -3.08700407E+003  9.41260589E+000   7.10429076E-007     809.70  <-- SCF
      3  -3.08700398E+003  9.41815264E+000  -9.52184978E-006     814.74  <-- SCF
      4  -3.08700392E+003  9.41551557E+000  -5.70047841E-006     817.77  <-- SCF
      5  -3.08700392E+003  9.41535729E+000   3.69694603E-007     820.85  <-- SCF
------------------------------------------------------------------------ <-- SCF
 
Final energy, E             =  -3087.003921951     eV
Final free energy (E-TS)    =  -3087.003921951     eV
(energies not corrected for finite basis set)
 
NB est. 0K energy (E-0.5TS)      =  -3087.003921951     eV
 

 ************************************** Forces **************************************
 *                                                                                  *
 *                           Cartesian components (eV/A)                            *
 * -------------------------------------------------------------------------------- *
 *                         x                    y                    z              *
 *                                                                                  *
 * O               1      0.00668             -0.00000             -0.00001         *
 * O               2     -0.00334             -0.00578              0.00000         *
 * O               3     -0.00334              0.00578              0.00000         *
 * O               4      0.00334              0.00577             -0.00000         *
 * O               5      0.00334             -0.00577             -0.00000         *
 * O               6     -0.00666              0.00000              0.00001         *
 * Al              1     -0.00000             -0.00000              0.00255         *
 * Al              2      0.00000              0.00000              0.00256         *
 * Al              3      0.00000             -0.00000             -0.00256         *
 * Al              4     -0.00000             -0.00000             -0.00255         *
 *                                                                                  *
 ************************************************************************************

 ***************** Stress Tensor *****************
 *                                               *
 *          Cartesian components (GPa)           *
 * --------------------------------------------- *
 *             x             y             z     *
 *                                               *
 *  x      0.048464     -0.000005     -0.000001  *
 *  y     -0.000005      0.048447      0.000005  *
 *  z     -0.000001      0.000005      0.009380  *
 *                                               *
 *  Pressure:   -0.0354                          *
 *                                               *
 *************************************************
  
 +------------+-------------+-------------+-----------------+ <-- min LBFGS
 |    Step    |   lambda    |   F.delta'  |    enthalpy     | <-- min LBFGS
 +------------+-------------+-------------+-----------------+ <-- min LBFGS
 |  previous  |    0.000000 |    0.003417 |    -3087.000310 | <-- min LBFGS
 | trial step |    1.000000 |   -0.021650 |    -3087.003991 | <-- min LBFGS
 |  line step |    0.136312 |   -0.005589 |    -3087.000970 | <-- min LBFGS
 |  quad step |    0.004281 |    0.001706 |    -3087.000311 | <-- min LBFGS
 +------------+-------------+-------------+-----------------+ <-- min LBFGS
  
 LBFGS: finished iteration     7 with enthalpy= -3.08700031E+003 eV
  
 +-----------+-----------------+-----------------+------------+-----+ <-- LBFGS
 | Parameter |      value      |    tolerance    |    units   | OK? | <-- LBFGS
 +-----------+-----------------+-----------------+------------+-----+ <-- LBFGS
 |  dE/ion   |   4.592815E-008 |   1.000000E-005 |         eV | Yes | <-- LBFGS
 |  |F|max   |   6.679066E-003 |   1.000000E-002 |       eV/A | Yes | <-- LBFGS
 |  |dR|max  |   4.232517E-006 |   1.000000E-003 |          A | Yes | <-- LBFGS
 |   Smax    |   4.846399E-002 |   1.000000E-001 |        GPa | Yes | <-- LBFGS
 +-----------+-----------------+-----------------+------------+-----+ <-- LBFGS
  
 LBFGS: Geometry optimization completed successfully.

================================================================================
 LBFGS: Final Configuration:
================================================================================

                           -------------------------------
                                      Unit Cell
                           -------------------------------
        Real Lattice(A)              Reciprocal Lattice(1/A)
     2.3972452     1.3840500     4.3629540        1.310501178   0.756618220   0.480040620
    -2.3972453     1.3840502     4.3629540       -1.310501117   0.756618104   0.480040638
     0.0000002    -2.7681004     4.3629537       -0.000000070  -1.513236420   0.480040606

                       Lattice parameters(A)       Cell Angles
                    a =      5.166986          alpha =   55.285131
                    b =      5.166986          beta  =   55.285127
                    c =      5.166986          gamma =   55.285128

                Current cell volume =            86.855271 A**3
                            density =             2.347843 amu/A**3
                                    =             3.898685 g/cm^3

                           -------------------------------
                                     Cell Contents
                           -------------------------------

            xxxxxxxxxxxxxxxxxxxxxxxxxxxxxxxxxxxxxxxxxxxxxxxxxxxxxxxxxxxxxxxxx
            x  Element         Atom        Fractional coordinates of atoms  x
            x                 Number           u          v          w      x
            x---------------------------------------------------------------x
            x  O                 1         0.556382   0.943618   0.250000   x
            x  O                 2         0.943618   0.250000   0.556382   x
            x  O                 3         0.250000   0.556382   0.943618   x
            x  O                 4         0.056382   0.750000   0.443618   x
            x  O                 5         0.750000   0.443618   0.056382   x
            x  O                 6         0.443618   0.056382   0.750000   x
            x  Al                1         0.147909   0.147909   0.147908   x
            x  Al                2         0.647909   0.647909   0.647909   x
            x  Al                3         0.852091   0.852091   0.852091   x
            x  Al                4         0.352091   0.352091   0.352091   x
            xxxxxxxxxxxxxxxxxxxxxxxxxxxxxxxxxxxxxxxxxxxxxxxxxxxxxxxxxxxxxxxxx


 LBFGS: Final Enthalpy     = -3.08700031E+003 eV
 LBFGS: Final <frequency>  unchanged from initial value
 LBFGS: Final bulk modulus =      34.23120 GPa

 ************************************** Forces **************************************
 *                                                                                  *
 *                           Cartesian components (eV/A)                            *
 * -------------------------------------------------------------------------------- *
 *                         x                    y                    z              *
 *                                                                                  *
 * O               1      0.00668             -0.00000             -0.00001         *
 * O               2     -0.00334             -0.00578              0.00000         *
 * O               3     -0.00334              0.00578              0.00000         *
 * O               4      0.00334              0.00577             -0.00000         *
 * O               5      0.00334             -0.00577             -0.00000         *
 * O               6     -0.00666              0.00000              0.00001         *
 * Al              1     -0.00000             -0.00000              0.00255         *
 * Al              2      0.00000              0.00000              0.00256         *
 * Al              3      0.00000             -0.00000             -0.00256         *
 * Al              4     -0.00000             -0.00000             -0.00255         *
 *                                                                                  *
 ************************************************************************************

 ***************** Stress Tensor *****************
 *                                               *
 *          Cartesian components (GPa)           *
 * --------------------------------------------- *
 *             x             y             z     *
 *                                               *
 *  x      0.048464     -0.000005     -0.000001  *
 *  y     -0.000005      0.048447      0.000005  *
 *  z     -0.000001      0.000005      0.009380  *
 *                                               *
 *  Pressure:   -0.0354                          *
 *                                               *
 *************************************************

 Pseudo atomic calculation performed for O 2s2 2p4

 Converged in 21 iterations to a total energy of -430.8269 eV

 Pseudo atomic calculation performed for Al 3s2 3p1

 Converged in 11 iterations to a total energy of -105.9168 eV
Charge spilling parameter for spin component 1 = 0.77%

            Orbital Populations       
     Ion    Atom   Orbital             Charge
  -------------------------------------------
      O     1      S                    1.836
      O     1      Px                   1.718
      O     1      Py                   1.752
      O     1      Pz                   1.742
      O     2      S                    1.836
      O     2      Px                   1.744
      O     2      Py                   1.727
      O     2      Pz                   1.741
      O     3      S                    1.836
      O     3      Px                   1.744
      O     3      Py                   1.727
      O     3      Pz                   1.741
      O     4      S                    1.836
      O     4      Px                   1.744
      O     4      Py                   1.727
      O     4      Pz                   1.742
      O     5      S                    1.836
      O     5      Px                   1.744
      O     5      Py                   1.727
      O     5      Pz                   1.741
      O     6      S                    1.836
      O     6      Px                   1.718
      O     6      Py                   1.752
      O     6      Pz                   1.741
     Al     1      S                    0.522
     Al     1      Px                   0.304
     Al     1      Py                   0.304
     Al     1      Pz                   0.297
     Al     2      S                    0.522
     Al     2      Px                   0.304
     Al     2      Py                   0.304
     Al     2      Pz                   0.297
     Al     3      S                    0.522
     Al     3      Px                   0.304
     Al     3      Py                   0.304
     Al     3      Pz                   0.297
     Al     4      S                    0.522
     Al     4      Px                   0.304
     Al     4      Py                   0.304
     Al     4      Pz                   0.297
  -------------------------------------------
                           Total:      48.000
  -------------------------------------------

     Atomic Populations (Mulliken)
     -----------------------------
Species          Ion     s      p      d      f     Total  Charge (e)
=====================================================================
  O               1     1.84   5.21   0.00   0.00   7.05    -1.05
  O               2     1.84   5.21   0.00   0.00   7.05    -1.05
  O               3     1.84   5.21   0.00   0.00   7.05    -1.05
  O               4     1.84   5.21   0.00   0.00   7.05    -1.05
  O               5     1.84   5.21   0.00   0.00   7.05    -1.05
  O               6     1.84   5.21   0.00   0.00   7.05    -1.05
  Al              1     0.52   0.91   0.00   0.00   1.43     1.57
  Al              2     0.52   0.91   0.00   0.00   1.43     1.57
  Al              3     0.52   0.91   0.00   0.00   1.43     1.57
  Al              4     0.52   0.91   0.00   0.00   1.43     1.57
=====================================================================

                 Bond                   Population      Length (A)
======================================================================
               O 5 -- Al 4                   0.36        1.86862
               O 3 -- Al 2                   0.36        1.86862
               O 6 -- Al 1                   0.36        1.86862
               O 6 -- Al 4                   0.36        1.86862
               O 4 -- Al 1                   0.36        1.86862
               O 1 -- Al 3                   0.36        1.86862
               O 2 -- Al 3                   0.36        1.86862
               O 1 -- Al 2                   0.36        1.86862
               O 4 -- Al 4                   0.36        1.86862
               O 5 -- Al 1                   0.36        1.86862
               O 2 -- Al 2                   0.36        1.86862
               O 3 -- Al 3                   0.36        1.86862
               O 1 -- Al 1                   0.26        1.98580
               O 3 -- Al 4                   0.26        1.98580
               O 3 -- Al 1                   0.26        1.98580
               O 1 -- Al 4                   0.26        1.98580
               O 2 -- Al 4                   0.26        1.98580
               O 2 -- Al 1                   0.26        1.98580
               O 5 -- Al 3                   0.26        1.98580
               O 4 -- Al 3                   0.26        1.98580
               O 5 -- Al 2                   0.26        1.98580
               O 6 -- Al 2                   0.26        1.98580
               O 4 -- Al 2                   0.26        1.98580
               O 6 -- Al 3                   0.26        1.98580
               O 1 -- O 2                   -0.16        2.54429
               O 1 -- O 3                   -0.16        2.54429
               O 2 -- O 3                   -0.16        2.54429
               O 4 -- O 6                   -0.16        2.54429
               O 5 -- O 6                   -0.16        2.54429
               O 4 -- O 5                   -0.16        2.54429
               O 3 -- O 5                   -0.16        2.63946
               O 2 -- O 4                   -0.16        2.63946
               O 1 -- O 6                   -0.16        2.63946
              Al 1 -- Al 4                  -0.50        2.67252
              Al 2 -- Al 3                  -0.50        2.67252
               O 3 -- O 6                   -0.10        2.74521
               O 2 -- O 6                   -0.10        2.74521
               O 1 -- O 5                   -0.10        2.74521
               O 1 -- O 4                   -0.10        2.74521
               O 3 -- O 4                   -0.10        2.74521
               O 2 -- O 5                   -0.10        2.74521
              Al 2 -- Al 4                  -0.63        2.81132
              Al 1 -- Al 3                  -0.63        2.81132
======================================================================


Writing analysis data to al2o3_xc-PBESOL_c-0600_k-6x6x6_geom.castep_bin

Writing model to al2o3_xc-PBESOL_c-0600_k-6x6x6_geom.check
 
 A BibTeX formatted list of references used in this run has been written to 
 al2o3_xc-PBESOL_c-0600_k-6x6x6_geom.bib
 
Initialisation time =      7.18 s
Calculation time    =    828.36 s
Finalisation time   =      0.24 s
Total time          =    835.78 s
Peak Memory Use     = 628184 kB
  
Overall parallel efficiency rating: Excellent (97%)                             
  
Data was distributed by:-
k-point (9-way); efficiency rating: Excellent (98%)                             
