 +-------------------------------------------------+
 |                                                 |
 |      CCC   AA    SSS  TTTTT  EEEEE  PPPP        |
 |     C     A  A  S       T    E      P   P       |
 |     C     AAAA   SS     T    EEE    PPPP        |
 |     C     A  A     S    T    E      P           |
 |      CCC  A  A  SSS     T    EEEEE  P           |
 |                                                 |
 +-------------------------------------------------+
 |                                                 |
 | Welcome to Academic Release CASTEP version 19.11|          
 | Ab Initio Total Energy Program                  |
 |                                                 |
 | Authors:                                        |
 | M. Segall, M. Probert, C. Pickard, P. Hasnip,   |
 | S. Clark, K. Refson, J. R. Yates, M. Payne      |
 |                                                 |
 | Contributors:                                   |
 | P. Lindan, P. Haynes, J. White, V. Milman,      |
 | N. Govind, M. Gibson, P. Tulip, V. Cocula,      |
 | B. Montanari, D. Quigley, M. Glover,            |
 | L. Bernasconi, A. Perlov, M. Plummer,           |
 | E. McNellis, J. Meyer, J. Gale, D. Jochym       |
 | J. Aarons, B. Walker, R. Gillen, D. Jones       |
 | T. Green, I. J. Bush, C. J. Armstrong,          |
 | E. J. Higgins, E. L. Brown, M. S. McFly,        |
 | J. Wilkins, B-C. Shih, P. J. P. Byrne           |
 |                                                 |
 | Copyright (c) 2000 - 2018                       |
 |                                                 |
 |     Distributed under the terms of an           |
 |     Agreement between the United Kingdom        |
 |     Car-Parrinello (UKCP) Consortium,           |
 |     Daresbury Laboratory and Accelrys, Inc.     |
 |                                                 |
 | Please cite                                     |
 |                                                 |
 |     "First principles methods using CASTEP"     |
 |                                                 |
 |         Zeitschrift fuer Kristallographie       |
 |           220(5-6) pp. 567-570 (2005)           |
 |                                                 |
 | S. J. Clark, M. D. Segall, C. J. Pickard,       |
 | P. J. Hasnip, M. J. Probert, K. Refson,         |
 | M. C. Payne                                     |
 |                                                 |
 |       in all publications arising from          |
 |              your use of CASTEP                 |
 |                                                 |
 +-------------------------------------------------+
 |                                                 |
 |              http://www.castep.org              |
 |                                                 |
 +-------------------------------------------------+



 Compiled for linux_x86_64_gfortran7.0 on Fri, 31 Jan 2020 20:20:28 +0100
 from code version e1fe0d666396+ Castep191_branch Thu, 24 Oct 2019 13:54:03 +0100
 Compiler: GNU Fortran 7.4.0; Optimisation: fast
 MATHLIBS: default (LAPACK version 3.7.1)
 FFT Lib : default
 Fundamental constants values: CODATA 2014

 Run started: Sat, 06 Nov 2021 01:00:10 +0100

 Atomic calculation performed for O: 1s2 2s2 2p4

 Converged in 57 iterations to an ae energy of -2034.019 eV

   ============================================================                
   | Pseudopotential Report - Date of generation  6-11-2021   |                
   ------------------------------------------------------------                
   | Element: O Ionic charge:  6.00 Level of theory: PBESOL   |                
   | Atomic Solver: Koelling-Harmon                           |                
   |                                                          |                
   |               Reference Electronic Structure             |                
   |         Orbital         Occupation         Energy        |                
   |            2s              2.000           -0.875        |                
   |            2p              4.000           -0.330        |                
   |                                                          |                
   |                 Pseudopotential Definition               |                
   |        Beta     l      e      Rc     scheme   norm       |                
   |          1      0   -0.875   1.100     qc      0         |                
   |          2      0    0.250   1.100     qc      0         |                
   |          3      1   -0.330   1.100     qc      0         |                
   |          4      1    0.250   1.100     qc      0         |                
   |         loc     2    0.000   1.100     pn      0         |                
   |                                                          |                
   | Augmentation charge Rinner = 0.769                       |                
   | Partial core correction Rc = 0.769                       |                
   ------------------------------------------------------------                
   | "2|1.1|17|20|23|20:21(qc=8)"                             |                
   ------------------------------------------------------------                
   |      Author: Chris J. Pickard, Cambridge University      |                
   ============================================================                

 Atomic calculation performed for Al: 1s2 2s2 2p6 3s2 3p1

 Converged in 55 iterations to an ae energy of -6590.489 eV

   ============================================================                
   | Pseudopotential Report - Date of generation  6-11-2021   |                
   ------------------------------------------------------------                
   | Element: Al Ionic charge:  3.00 Level of theory: PBESOL  |                
   | Atomic Solver: Koelling-Harmon                           |                
   |                                                          |                
   |               Reference Electronic Structure             |                
   |         Orbital         Occupation         Energy        |                
   |            3s              2.000           -0.284        |                
   |            3p              1.000           -0.099        |                
   |                                                          |                
   |                 Pseudopotential Definition               |                
   |        Beta     l      e      Rc     scheme   norm       |                
   |          1      0   -0.284   2.192     qc      0         |                
   |          2      0    0.250   2.192     qc      0         |                
   |          3      1   -0.099   2.192     qc      0         |                
   |          4      1    0.250   2.192     qc      0         |                
   |          5      2    0.000   2.000     qc      0         |                
   |          6      2    0.250   2.000     qc      0         |                
   |         loc     3    0.000   2.192     pn      0         |                
   |                                                          |                
   | Augmentation charge Rinner = 1.398                       |                
   | Partial core correction Rc = 1.398                       |                
   ------------------------------------------------------------                
   | "3|2.2|2.2|1.4|4|5|5|30:31:32U2U2"                       |                
   ------------------------------------------------------------                
   |      Author: Chris J. Pickard, Cambridge University      |                
   ============================================================                

 Pseudo atomic calculation performed for O 2s2 2p4

 Converged in 21 iterations to a total energy of -405.3127 eV

 Pseudo atomic calculation performed for Al 3s2 3p1

 Converged in 11 iterations to a total energy of -105.9158 eV
 Calculation parallelised over 9 processes.
 Data is distributed by k-point(9-way)

 ************************************ Title ************************************
 

 ***************************** General Parameters ******************************
  
 output verbosity                               : normal  (1)
 write checkpoint data to                       : al2o3_xc-PBESOL_c-0300_k-5x5x5_geom.check
 type of calculation                            : geometry optimization
 stress calculation                             : off
 density difference calculation                 : off
 electron localisation func (ELF) calculation   : off
 Hirshfeld analysis                             : off
 unlimited duration calculation
 timing information                             : on
 memory usage estimate                          : on
 write extra output files                       : on
 write final potential to formatted file        : off
 write final density to formatted file          : off
 write structure in CIF formatted file          : on
 write structure in CELL formatted file         : on
 write BibTeX reference list                    : on
 write OTFG pseudopotential files               : on
 write electrostatic potential file             : on
 write bands file                               : on
 checkpoint writing                             : both castep_bin and check files
  
 output         length unit                     : A
 output           mass unit                     : amu
 output           time unit                     : ps
 output         charge unit                     : e
 output           spin unit                     : hbar/2
 output         energy unit                     : eV
 output          force unit                     : eV/A
 output       velocity unit                     : A/ps
 output       pressure unit                     : GPa
 output     inv_length unit                     : 1/A
 output      frequency unit                     : cm-1
 output force constant unit                     : eV/A**2
 output         volume unit                     : A**3
 output   IR intensity unit                     : (D/A)**2/amu
 output         dipole unit                     : D
 output         efield unit                     : eV/A/e
 output        entropy unit                     : J/mol/K
  
 wavefunctions paging                           : none
 random number generator seed                   : randomised (10010405)
 data distribution                              : optimal for this architecture
 optimization strategy                          : maximize speed(+++)

 *********************** Exchange-Correlation Parameters ***********************
  
 using functional                               : PBE for solids (2008)
 relativistic treatment                         : Koelling-Harmon
 DFT+D: Semi-empirical dispersion correction    : off

 ************************* Pseudopotential Parameters **************************
  
 pseudopotential representation                 : reciprocal space
 <beta|phi> representation                      : reciprocal space
 spin-orbit coupling                            : off

 **************************** Basis Set Parameters *****************************
  
 plane wave basis set cut-off                   :   300.0000   eV
 size of standard grid                          :     1.7500
 size of   fine   gmax                          :    15.5288   1/A
 finite basis set correction                    : automatic
 number of sample energies                      :          3
           sample  spacing                      :     5.0000   eV

 **************************** Electronic Parameters ****************************
  
 number of  electrons                           :  48.00    
 net charge of system                           :  0.000    
 treating system as non-spin-polarized
 number of bands                                :         29

 ********************* Electronic Minimization Parameters **********************
  
 Method: Treating system as metallic with density mixing treatment of electrons,
         and number of  SD  steps               :          1
         and number of  CG  steps               :          4
  
 total energy / atom convergence tol.           : 0.1000E-04   eV
 eigen-energy convergence tolerance             : 0.1000E-05   eV
 max force / atom convergence tol.              : ignored
 convergence tolerance window                   :          3   cycles
 max. number of SCF cycles                      :         30
 number of fixed-spin iterations                :         10
 smearing scheme                                : Gaussian
 smearing width                                 : 0.2000       eV
 Fermi energy convergence tolerance             : 0.2721E-13   eV
 periodic dipole correction                     : NONE

 ************************** Density Mixing Parameters **************************
  
 density-mixing scheme                          : Broyden
 max. length of mixing history                  :         20
 charge density mixing amplitude                : 0.8000    
 cut-off energy for mixing                      :  300.0       eV

 *********************** Population Analysis Parameters ************************
  
 Population analysis with cutoff                :  3.000       A
 Population analysis output                     : summary and pdos components

 ********************** Geometry Optimization Parameters ***********************
  
 optimization method                            : LBFGS
 max. no. of LBFGS updates                      : unbounded
 variable cell method                           : fixed basis quality
 max. number of steps                           :        150
 estimated bulk modulus                         :  500.0       GPa
 estimated <frequency>                          :  1668.       cm-1
 geom line minimiser                            : on
 with line minimiser tolerance                  :     0.4000
 total energy convergence tolerance             : 0.1000E-04   eV/atom
        max ionic |force| tolerance             : 0.1000E-01   eV/A
 max ionic |displacement| tolerance             : 0.1000E-02   A
   max |stress component| tolerance             : 0.1000       GPa
 convergence tolerance window                   :          2   steps
 backup results every                           :          5   steps
 write geom trajectory file                     : on

 *******************************************************************************
  

                           -------------------------------
                                      Unit Cell
                           -------------------------------
        Real Lattice(A)                      Reciprocal Lattice(1/A)
     2.3801000     1.3741510     4.3310000        1.319941454   0.762068577   0.483582396
    -2.3801000     1.3741510     4.3310000       -1.319941454   0.762068577   0.483582396
     0.0000000    -2.7483030     4.3310000       -0.000000000  -1.524137154   0.483582220

                       Lattice parameters(A)       Cell Angles
                    a =      5.129398          alpha =   55.292535
                    b =      5.129398          beta  =   55.292535
                    c =      5.129399          gamma =   55.292537

                       Current cell volume =            84.990269       A**3
                                   density =             2.399364   AMU/A**3
                                           =             3.984237     g/cm^3

                           -------------------------------
                                     Cell Contents
                           -------------------------------
                         Total number of ions in cell =   10
                      Total number of species in cell =    2
                        Max number of any one species =    6

            xxxxxxxxxxxxxxxxxxxxxxxxxxxxxxxxxxxxxxxxxxxxxxxxxxxxxxxxxxxx
            x  Element    Atom        Fractional coordinates of atoms  x
            x            Number           u          v          w      x
            x----------------------------------------------------------x
            x  O            1         0.556260   0.943740   0.250000   x 
            x  O            2         0.943740   0.250000   0.556260   x 
            x  O            3         0.250000   0.556260   0.943740   x 
            x  O            4         0.056260   0.750000   0.443740   x 
            x  O            5         0.750000   0.443740   0.056260   x 
            x  O            6         0.443740   0.056260   0.750000   x 
            x  Al           1         0.147900   0.147900   0.147900   x 
            x  Al           2         0.647900   0.647900   0.647900   x 
            x  Al           3         0.852100   0.852100   0.852100   x 
            x  Al           4         0.352100   0.352100   0.352100   x 
            xxxxxxxxxxxxxxxxxxxxxxxxxxxxxxxxxxxxxxxxxxxxxxxxxxxxxxxxxxxx


                         No user defined ionic velocities

                           -------------------------------
                                   Details of Species
                           -------------------------------

                               Mass of species in AMU
                                    O   15.9994000
                                    Al   26.9815400

                          Electric Quadrupole Moment (Barn)
                                    O   -0.0255800 Isotope 17
                                    Al    0.1466000 Isotope 27

                          Files used for pseudopotentials:
                                    O 2|1.1|17|20|23|20:21(qc=8)
                                    Al 3|2.2|2.2|1.4|4|5|5|30:31:32U2U2

                           -------------------------------
                              k-Points For BZ Sampling
                           -------------------------------
                       MP grid size for SCF calculation is  5  5  5
                            with an offset of   0.000  0.000  0.000
                       Number of kpoints used =            63

                           -------------------------------
                               Symmetry and Constraints
                           -------------------------------

                      Maximum deviation from symmetry =  0.00000         ANG

                      Number of symmetry operations   =           1
                      Number of ionic constraints     =           3
                      Point group of crystal =     1: C1, 1, 1
                      Space group of crystal =   167: R-3c, -R 3 2"c

             Set iprint > 1 for details on symmetry rotations/translations

                         Centre of mass is constrained
             Set iprint > 1 for details of linear ionic constraints

                         Number of cell constraints= 0
                         Cell constraints are:  1 2 3 4 5 6

                         External pressure/stress (GPa)
                          0.00000   0.00000   0.00000
                                    0.00000   0.00000
                                              0.00000
  
+---------------- MEMORY AND SCRATCH DISK ESTIMATES PER PROCESS --------------+
|                                                     Memory          Disk    |
| Baseline code, static data and system overhead      196.0 MB         0.0 MB |
| BLAS internal memory storage                          0.0 MB         0.0 MB |
| Model and support data                               66.3 MB         0.0 MB |
| Electronic energy minimisation requirements          13.5 MB         0.0 MB |
| Force calculation requirements                        2.9 MB         0.0 MB |
|                                               ----------------------------- |
| Approx. total storage required per process          275.8 MB         0.0 MB |
|                                                                             |
| Requirements will fluctuate during execution and may exceed these estimates |
+-----------------------------------------------------------------------------+
Calculating finite basis set correction with  3 cut-off energies.
Calculating total energy with cut-off of  290.000 eV.
------------------------------------------------------------------------ <-- SCF
SCF loop      Energy           Fermi           Energy gain       Timer   <-- SCF
                               energy          per atom          (sec)   <-- SCF
------------------------------------------------------------------------ <-- SCF
Initial  -1.89224773E+003  0.00000000E+000                         8.01  <-- SCF
      1  -2.78891245E+003  1.17363281E+001   8.96664719E+001       8.82  <-- SCF
      2  -2.92123975E+003  5.89585908E+000   1.32327306E+001       9.45  <-- SCF
      3  -2.92382496E+003  6.15648457E+000   2.58521097E-001      10.09  <-- SCF
      4  -2.91962793E+003  8.23348849E+000  -4.19703046E-001      10.86  <-- SCF
      5  -2.91906585E+003  7.84031293E+000  -5.62082885E-002      11.63  <-- SCF
      6  -2.91907291E+003  7.88508255E+000   7.05672393E-004      12.45  <-- SCF
      7  -2.91907395E+003  7.90654541E+000   1.04144008E-004      13.20  <-- SCF
      8  -2.91907398E+003  7.90659531E+000   2.90113869E-006      13.78  <-- SCF
      9  -2.91907398E+003  7.90701826E+000   4.73866767E-007      14.33  <-- SCF
------------------------------------------------------------------------ <-- SCF
 
Final energy, E             =  -2919.073982636     eV
Final free energy (E-TS)    =  -2919.073982636     eV
(energies not corrected for finite basis set)
 
NB est. 0K energy (E-0.5TS)      =  -2919.073982636     eV
 
Calculating total energy with cut-off of  295.000 eV.
------------------------------------------------------------------------ <-- SCF
SCF loop      Energy           Fermi           Energy gain       Timer   <-- SCF
                               energy          per atom          (sec)   <-- SCF
------------------------------------------------------------------------ <-- SCF
Initial  -2.91907471E+003  0.00000000E+000                        14.61  <-- SCF
      1  -2.92458426E+003  7.82526615E+000   5.50955253E-001      15.30  <-- SCF
      2  -2.92460741E+003  7.82790366E+000   2.31488349E-003      16.15  <-- SCF
      3  -2.92457451E+003  7.98452085E+000  -3.28930953E-003      16.98  <-- SCF
      4  -2.92456703E+003  7.93926508E+000  -7.48400601E-004      17.80  <-- SCF
      5  -2.92456726E+003  7.93952683E+000   2.28168986E-005      18.47  <-- SCF
      6  -2.92456726E+003  7.93986062E+000   6.36117542E-007      19.02  <-- SCF
      7  -2.92456727E+003  7.93996526E+000   2.42404141E-008      19.56  <-- SCF
------------------------------------------------------------------------ <-- SCF
 
Final energy, E             =  -2924.567265035     eV
Final free energy (E-TS)    =  -2924.567265035     eV
(energies not corrected for finite basis set)
 
NB est. 0K energy (E-0.5TS)      =  -2924.567265035     eV
 
Calculating total energy with cut-off of  300.000 eV.
------------------------------------------------------------------------ <-- SCF
SCF loop      Energy           Fermi           Energy gain       Timer   <-- SCF
                               energy          per atom          (sec)   <-- SCF
------------------------------------------------------------------------ <-- SCF
Initial  -2.92456727E+003  0.00000000E+000                        19.85  <-- SCF
      1  -2.93034912E+003  7.91556106E+000   5.78185995E-001      20.54  <-- SCF
      2  -2.93037163E+003  7.91598720E+000   2.25015098E-003      21.38  <-- SCF
      3  -2.93033602E+003  8.07272940E+000  -3.56043792E-003      22.19  <-- SCF
      4  -2.93032731E+003  8.02464923E+000  -8.71325213E-004      23.03  <-- SCF
      5  -2.93032758E+003  8.02488857E+000   2.66305037E-005      23.71  <-- SCF
      6  -2.93032758E+003  8.02524403E+000   7.13499219E-007      24.29  <-- SCF
      7  -2.93032758E+003  8.02536644E+000   2.62813239E-008      24.83  <-- SCF
------------------------------------------------------------------------ <-- SCF
 
Final energy, E             =  -2930.327582539     eV
Final free energy (E-TS)    =  -2930.327582539     eV
(energies not corrected for finite basis set)
 
NB est. 0K energy (E-0.5TS)      =  -2930.327582539     eV
 
 For future reference: finite basis dEtot/dlog(Ecut) =    -329.316915eV
 Total energy corrected for finite basis set =   -2930.304264 eV
 
+---------------- MEMORY AND SCRATCH DISK ESTIMATES PER PROCESS --------------+
|                                                     Memory          Disk    |
| Model and support data                               77.3 MB         0.0 MB |
| Electronic energy minimisation requirements          13.5 MB         0.0 MB |
| Geometry minimisation requirements                   17.4 MB         0.0 MB |
|                                               ----------------------------- |
| Approx. total storage required per process          108.2 MB         0.0 MB |
|                                                                             |
| Requirements will fluctuate during execution and may exceed these estimates |
+-----------------------------------------------------------------------------+
 

 ************************************** Forces **************************************
 *                                                                                  *
 *                           Cartesian components (eV/A)                            *
 * -------------------------------------------------------------------------------- *
 *                         x                    y                    z              *
 *                                                                                  *
 * O               1     -1.22145             -0.00032             -0.00178         *
 * O               2      0.61044              1.05796             -0.00178         *
 * O               3      0.61101             -1.05765             -0.00177         *
 * O               4     -0.61044             -1.05796              0.00177         *
 * O               5     -0.61100              1.05764              0.00177         *
 * O               6      1.22145              0.00032              0.00178         *
 * Al              1     -0.00000              0.00001              0.24452         *
 * Al              2      0.00000             -0.00001              0.24061         *
 * Al              3      0.00000             -0.00001             -0.24452         *
 * Al              4     -0.00000              0.00001             -0.24061         *
 *                                                                                  *
 ************************************************************************************

 ***************** Stress Tensor *****************
 *                                               *
 *          Cartesian components (GPa)           *
 * --------------------------------------------- *
 *             x             y             z     *
 *                                               *
 *  x    -29.151501      0.000005     -0.000013  *
 *  y      0.000005    -29.151555     -0.000017  *
 *  z     -0.000013     -0.000017    -21.448427  *
 *                                               *
 *  Pressure:   26.5838                          *
 *                                               *
 *************************************************
 LBFGS: finished iteration     0 with enthalpy= -2.93030426E+003 eV
  
 +-----------+-----------------+-----------------+------------+-----+ <-- LBFGS
 | Parameter |      value      |    tolerance    |    units   | OK? | <-- LBFGS
 +-----------+-----------------+-----------------+------------+-----+ <-- LBFGS
 |  dE/ion   |   0.000000E+000 |   1.000000E-005 |         eV | No  | <-- LBFGS
 |  |F|max   |   1.221456E+000 |   1.000000E-002 |       eV/A | No  | <-- LBFGS
 |  |dR|max  |   0.000000E+000 |   1.000000E-003 |          A | No  | <-- LBFGS
 |   Smax    |   2.915155E+001 |   1.000000E-001 |        GPa | No  | <-- LBFGS
 +-----------+-----------------+-----------------+------------+-----+ <-- LBFGS
  

================================================================================
 Starting LBFGS iteration          1 ...
================================================================================
  
 +------------+-------------+-------------+-----------------+ <-- min LBFGS
 |    Step    |   lambda    |   F.delta'  |    enthalpy     | <-- min LBFGS
 +------------+-------------+-------------+-----------------+ <-- min LBFGS
 |  previous  |    0.000000 |    0.949201 |    -2930.304264 | <-- min LBFGS
 +------------+-------------+-------------+-----------------+ <-- min LBFGS
  

--------------------------------------------------------------------------------
 LBFGS: starting iteration         1 with trial guess (lambda=  1.000000)
--------------------------------------------------------------------------------
 
+---------------- MEMORY AND SCRATCH DISK ESTIMATES PER PROCESS --------------+
|                                                     Memory          Disk    |
| Model and support data                               77.6 MB         0.0 MB |
| Electronic energy minimisation requirements          14.0 MB         0.0 MB |
| Geometry minimisation requirements                   18.1 MB         0.0 MB |
|                                               ----------------------------- |
| Approx. total storage required per process          109.7 MB         0.0 MB |
|                                                                             |
| Requirements will fluctuate during execution and may exceed these estimates |
+-----------------------------------------------------------------------------+
 

                           -------------------------------
                                      Unit Cell
                           -------------------------------
        Real Lattice(A)              Reciprocal Lattice(1/A)
     2.4263557     1.4008568     4.3929288        1.294778298   0.747540595   0.476765135
    -2.4263556     1.4008568     4.3929288       -1.294778302   0.747540587   0.476765157
     0.0000000    -2.8017145     4.3929287       -0.000000009  -1.495081198   0.476764997

                       Lattice parameters(A)       Cell Angles
                    a =      5.210319          alpha =   55.508833
                    b =      5.210319          beta  =   55.508832
                    c =      5.210319          gamma =   55.508833

                Current cell volume =            89.588797 A**3
                            density =             2.276206 amu/A**3
                                    =             3.779729 g/cm^3

                           -------------------------------
                                     Cell Contents
                           -------------------------------

            xxxxxxxxxxxxxxxxxxxxxxxxxxxxxxxxxxxxxxxxxxxxxxxxxxxxxxxxxxxxxxxxx
            x  Element         Atom        Fractional coordinates of atoms  x
            x                 Number           u          v          w      x
            x---------------------------------------------------------------x
            x  O                 1         0.555029   0.944969   0.250000   x
            x  O                 2         0.944969   0.250000   0.555029   x
            x  O                 3         0.250000   0.555029   0.944969   x
            x  O                 4         0.055031   0.750000   0.444971   x
            x  O                 5         0.750000   0.444971   0.055031   x
            x  O                 6         0.444971   0.055031   0.750000   x
            x  Al                1         0.147990   0.147990   0.147990   x
            x  Al                2         0.647989   0.647989   0.647989   x
            x  Al                3         0.852010   0.852010   0.852010   x
            x  Al                4         0.352011   0.352011   0.352011   x
            xxxxxxxxxxxxxxxxxxxxxxxxxxxxxxxxxxxxxxxxxxxxxxxxxxxxxxxxxxxxxxxxx


------------------------------------------------------------------------ <-- SCF
SCF loop      Energy           Fermi           Energy gain       Timer   <-- SCF
                               energy          per atom          (sec)   <-- SCF
------------------------------------------------------------------------ <-- SCF
Initial  -2.91895839E+003  0.00000000E+000                        27.18  <-- SCF
      1  -2.93197700E+003  6.62441552E+000   1.30186097E+000      27.89  <-- SCF
      2  -2.93205302E+003  6.62731173E+000   7.60221609E-003      28.81  <-- SCF
      3  -2.93140197E+003  7.25123664E+000  -6.51047575E-002      29.64  <-- SCF
      4  -2.93126684E+003  7.05973097E+000  -1.35133940E-002      30.50  <-- SCF
      5  -2.93126907E+003  7.06873537E+000   2.22924994E-004      31.44  <-- SCF
      6  -2.93126907E+003  7.07247876E+000  -2.24664840E-007      32.06  <-- SCF
      7  -2.93126907E+003  7.07282294E+000   2.49049608E-007      32.65  <-- SCF
------------------------------------------------------------------------ <-- SCF
 
Final energy, E             =  -2931.269068391     eV
Final free energy (E-TS)    =  -2931.269068391     eV
(energies not corrected for finite basis set)
 
NB est. 0K energy (E-0.5TS)      =  -2931.269068391     eV
 

 ************************************** Forces **************************************
 *                                                                                  *
 *                           Cartesian components (eV/A)                            *
 * -------------------------------------------------------------------------------- *
 *                         x                    y                    z              *
 *                                                                                  *
 * O               1     -1.55789             -0.00016             -0.00168         *
 * O               2      0.77880              1.34925             -0.00167         *
 * O               3      0.77908             -1.34909             -0.00168         *
 * O               4     -0.77880             -1.34925              0.00167         *
 * O               5     -0.77909              1.34910              0.00168         *
 * O               6      1.55789              0.00016              0.00168         *
 * Al              1     -0.00000              0.00001              0.04414         *
 * Al              2     -0.00000             -0.00001              0.04071         *
 * Al              3      0.00000             -0.00001             -0.04415         *
 * Al              4      0.00000              0.00001             -0.04071         *
 *                                                                                  *
 ************************************************************************************

 ***************** Stress Tensor *****************
 *                                               *
 *          Cartesian components (GPa)           *
 * --------------------------------------------- *
 *             x             y             z     *
 *                                               *
 *  x    -16.029887     -0.000009      0.000015  *
 *  y     -0.000009    -16.029933     -0.000013  *
 *  z      0.000015     -0.000013    -12.184845  *
 *                                               *
 *  Pressure:   14.7482                          *
 *                                               *
 *************************************************
  
 +------------+-------------+-------------+-----------------+ <-- min LBFGS
 |    Step    |   lambda    |   F.delta'  |    enthalpy     | <-- min LBFGS
 +------------+-------------+-------------+-----------------+ <-- min LBFGS
 |  previous  |    0.000000 |    0.949201 |    -2930.304264 | <-- min LBFGS
 | trial step |    1.000000 |    0.580246 |    -2931.257574 | <-- min LBFGS
 +------------+-------------+-------------+-----------------+ <-- min LBFGS
  

--------------------------------------------------------------------------------
 LBFGS: improving iteration         1 with line minimization (lambda=  2.572675)
--------------------------------------------------------------------------------
 
+---------------- MEMORY AND SCRATCH DISK ESTIMATES PER PROCESS --------------+
|                                                     Memory          Disk    |
| Model and support data                               78.5 MB         0.0 MB |
| Electronic energy minimisation requirements          14.9 MB         0.0 MB |
| Geometry minimisation requirements                   19.3 MB         0.0 MB |
|                                               ----------------------------- |
| Approx. total storage required per process          112.7 MB         0.0 MB |
|                                                                             |
| Requirements will fluctuate during execution and may exceed these estimates |
+-----------------------------------------------------------------------------+
 

                           -------------------------------
                                      Unit Cell
                           -------------------------------
        Real Lattice(A)              Reciprocal Lattice(1/A)
     2.4991009     1.4428563     4.4903227        1.257089219   0.725780757   0.466424207
    -2.4991007     1.4428564     4.4903226       -1.257089228   0.725780738   0.466424261
     0.0000001    -2.8857134     4.4903225       -0.000000021  -1.451561533   0.466424125

                       Lattice parameters(A)       Cell Angles
                    a =      5.337634          alpha =   55.835538
                    b =      5.337634          beta  =   55.835536
                    c =      5.337634          gamma =   55.835535

                Current cell volume =            97.148417 A**3
                            density =             2.099083 amu/A**3
                                    =             3.485609 g/cm^3

                           -------------------------------
                                     Cell Contents
                           -------------------------------

            xxxxxxxxxxxxxxxxxxxxxxxxxxxxxxxxxxxxxxxxxxxxxxxxxxxxxxxxxxxxxxxxx
            x  Element         Atom        Fractional coordinates of atoms  x
            x                 Number           u          v          w      x
            x---------------------------------------------------------------x
            x  O                 1         0.553093   0.946903   0.249999   x
            x  O                 2         0.946903   0.249999   0.553093   x
            x  O                 3         0.249999   0.553093   0.946902   x
            x  O                 4         0.053097   0.750001   0.446907   x
            x  O                 5         0.750001   0.446907   0.053097   x
            x  O                 6         0.446907   0.053098   0.750001   x
            x  Al                1         0.148132   0.148132   0.148132   x
            x  Al                2         0.648128   0.648128   0.648128   x
            x  Al                3         0.851868   0.851868   0.851868   x
            x  Al                4         0.351872   0.351872   0.351871   x
            xxxxxxxxxxxxxxxxxxxxxxxxxxxxxxxxxxxxxxxxxxxxxxxxxxxxxxxxxxxxxxxxx


------------------------------------------------------------------------ <-- SCF
SCF loop      Energy           Fermi           Energy gain       Timer   <-- SCF
                               energy          per atom          (sec)   <-- SCF
------------------------------------------------------------------------ <-- SCF
Initial  -2.91283781E+003  0.00000000E+000                        35.03  <-- SCF
      1  -2.93415622E+003  5.22775617E+000   2.13184085E+000      35.77  <-- SCF
      2  -2.93433053E+003  5.23380393E+000   1.74310615E-002      36.73  <-- SCF
      3  -2.93278013E+003  6.18017133E+000  -1.55039270E-001      37.60  <-- SCF
      4  -2.93238287E+003  5.84895653E+000  -3.97263469E-002      38.48  <-- SCF
      5  -2.93238961E+003  5.86416981E+000   6.73535767E-004      39.46  <-- SCF
      6  -2.93238960E+003  5.87078721E+000  -3.45914861E-007      40.21  <-- SCF
      7  -2.93238961E+003  5.87105378E+000   5.49674858E-007      40.85  <-- SCF
------------------------------------------------------------------------ <-- SCF
 
Final energy, E             =  -2932.389600868     eV
Final free energy (E-TS)    =  -2932.389607097     eV
(energies not corrected for finite basis set)
 
NB est. 0K energy (E-0.5TS)      =  -2932.389603983     eV
 

 ************************************** Forces **************************************
 *                                                                                  *
 *                           Cartesian components (eV/A)                            *
 * -------------------------------------------------------------------------------- *
 *                         x                    y                    z              *
 *                                                                                  *
 * O               1     -1.49785              0.00030             -0.00127         *
 * O               2      0.74918              1.29703             -0.00127         *
 * O               3      0.74866             -1.29732             -0.00127         *
 * O               4     -0.74918             -1.29703              0.00127         *
 * O               5     -0.74866              1.29732              0.00127         *
 * O               6      1.49785             -0.00030              0.00127         *
 * Al              1     -0.00000              0.00001             -0.15577         *
 * Al              2     -0.00000             -0.00000             -0.15783         *
 * Al              3      0.00000             -0.00001              0.15577         *
 * Al              4      0.00000              0.00000              0.15783         *
 *                                                                                  *
 ************************************************************************************

 ***************** Stress Tensor *****************
 *                                               *
 *          Cartesian components (GPa)           *
 * --------------------------------------------- *
 *             x             y             z     *
 *                                               *
 *  x     -0.414014     -0.000005      0.000014  *
 *  y     -0.000005     -0.414030     -0.000004  *
 *  z      0.000014     -0.000004     -0.526412  *
 *                                               *
 *  Pressure:    0.4515                          *
 *                                               *
 *************************************************
  
 +------------+-------------+-------------+-----------------+ <-- min LBFGS
 |    Step    |   lambda    |   F.delta'  |    enthalpy     | <-- min LBFGS
 +------------+-------------+-------------+-----------------+ <-- min LBFGS
 |  previous  |    0.000000 |    0.949201 |    -2930.304264 | <-- min LBFGS
 | trial step |    1.000000 |    0.580246 |    -2931.257574 | <-- min LBFGS
 |  line step |    2.572675 |    0.080133 |    -2932.173500 | <-- min LBFGS
 +------------+-------------+-------------+-----------------+ <-- min LBFGS
  
 LBFGS: finished iteration     1 with enthalpy= -2.93217350E+003 eV
  
 +-----------+-----------------+-----------------+------------+-----+ <-- LBFGS
 | Parameter |      value      |    tolerance    |    units   | OK? | <-- LBFGS
 +-----------+-----------------+-----------------+------------+-----+ <-- LBFGS
 |  dE/ion   |   1.869236E-001 |   1.000000E-005 |         eV | No  | <-- LBFGS
 |  |F|max   |   1.497850E+000 |   1.000000E-002 |       eV/A | No  | <-- LBFGS
 |  |dR|max  |   1.581785E-002 |   1.000000E-003 |          A | No  | <-- LBFGS
 |   Smax    |   5.264116E-001 |   1.000000E-001 |        GPa | No  | <-- LBFGS
 +-----------+-----------------+-----------------+------------+-----+ <-- LBFGS
  

================================================================================
 Starting LBFGS iteration          2 ...
================================================================================
  
 +------------+-------------+-------------+-----------------+ <-- min LBFGS
 |    Step    |   lambda    |   F.delta'  |    enthalpy     | <-- min LBFGS
 +------------+-------------+-------------+-----------------+ <-- min LBFGS
 |  previous  |    0.000000 |    0.325242 |    -2932.173500 | <-- min LBFGS
 +------------+-------------+-------------+-----------------+ <-- min LBFGS
  

--------------------------------------------------------------------------------
 LBFGS: starting iteration         2 with trial guess (lambda=  1.000000)
--------------------------------------------------------------------------------
 
+---------------- MEMORY AND SCRATCH DISK ESTIMATES PER PROCESS --------------+
|                                                     Memory          Disk    |
| Model and support data                               78.7 MB         0.0 MB |
| Electronic energy minimisation requirements          15.2 MB         0.0 MB |
| Geometry minimisation requirements                   19.6 MB         0.0 MB |
|                                               ----------------------------- |
| Approx. total storage required per process          113.5 MB         0.0 MB |
|                                                                             |
| Requirements will fluctuate during execution and may exceed these estimates |
+-----------------------------------------------------------------------------+
 

                           -------------------------------
                                      Unit Cell
                           -------------------------------
        Real Lattice(A)              Reciprocal Lattice(1/A)
     2.5111087     1.4497891     4.5071836        1.251077964   0.722310135   0.464679361
    -2.5111086     1.4497892     4.5071836       -1.251077968   0.722310123   0.464679391
     0.0000001    -2.8995789     4.5071835       -0.000000012  -1.444620305   0.464679280

                       Lattice parameters(A)       Cell Angles
                    a =      5.359315          alpha =   55.880469
                    b =      5.359315          beta  =   55.880468
                    c =      5.359315          gamma =   55.880466

                Current cell volume =            98.452534 A**3
                            density =             2.071278 amu/A**3
                                    =             3.439438 g/cm^3

                           -------------------------------
                                     Cell Contents
                           -------------------------------

            xxxxxxxxxxxxxxxxxxxxxxxxxxxxxxxxxxxxxxxxxxxxxxxxxxxxxxxxxxxxxxxxx
            x  Element         Atom        Fractional coordinates of atoms  x
            x                 Number           u          v          w      x
            x---------------------------------------------------------------x
            x  O                 1         0.551064   0.948931   0.249998   x
            x  O                 2         0.948931   0.249998   0.551064   x
            x  O                 3         0.249998   0.551064   0.948930   x
            x  O                 4         0.051069   0.750002   0.448936   x
            x  O                 5         0.750002   0.448936   0.051069   x
            x  O                 6         0.448936   0.051070   0.750002   x
            x  Al                1         0.148089   0.148089   0.148089   x
            x  Al                2         0.648084   0.648084   0.648084   x
            x  Al                3         0.851911   0.851911   0.851911   x
            x  Al                4         0.351916   0.351916   0.351916   x
            xxxxxxxxxxxxxxxxxxxxxxxxxxxxxxxxxxxxxxxxxxxxxxxxxxxxxxxxxxxxxxxxx


------------------------------------------------------------------------ <-- SCF
SCF loop      Energy           Fermi           Energy gain       Timer   <-- SCF
                               energy          per atom          (sec)   <-- SCF
------------------------------------------------------------------------ <-- SCF
Initial  -2.92883006E+003  0.00000000E+000                        43.26  <-- SCF
      1  -2.93274514E+003  5.52122524E+000   3.91508740E-001      44.01  <-- SCF
      2  -2.93276096E+003  5.52234628E+000   1.58202806E-003      44.98  <-- SCF
      3  -2.93238618E+003  5.68987068E+000  -3.74782386E-002      45.85  <-- SCF
      4  -2.93237718E+003  5.62610320E+000  -9.00371794E-004      46.86  <-- SCF
      5  -2.93237638E+003  5.64263165E+000  -8.01500348E-005      47.87  <-- SCF
      6  -2.93237640E+003  5.64310373E+000   2.25750716E-006      48.57  <-- SCF
      7  -2.93237640E+003  5.64346485E+000   3.23424289E-007      49.13  <-- SCF
------------------------------------------------------------------------ <-- SCF
 
Final energy, E             =  -2932.376393271     eV
Final free energy (E-TS)    =  -2932.376401389     eV
(energies not corrected for finite basis set)
 
NB est. 0K energy (E-0.5TS)      =  -2932.376397330     eV
 

 ************************************** Forces **************************************
 *                                                                                  *
 *                           Cartesian components (eV/A)                            *
 * -------------------------------------------------------------------------------- *
 *                         x                    y                    z              *
 *                                                                                  *
 * O               1     -1.33282              0.00061             -0.00098         *
 * O               2      0.66694              1.15395             -0.00098         *
 * O               3      0.66588             -1.15456             -0.00098         *
 * O               4     -0.66694             -1.15396              0.00098         *
 * O               5     -0.66589              1.15457              0.00098         *
 * O               6      1.33283             -0.00061              0.00098         *
 * Al              1     -0.00000              0.00000             -0.21968         *
 * Al              2     -0.00000             -0.00000             -0.22161         *
 * Al              3      0.00000             -0.00000              0.21968         *
 * Al              4      0.00000              0.00000              0.22161         *
 *                                                                                  *
 ************************************************************************************

 ***************** Stress Tensor *****************
 *                                               *
 *          Cartesian components (GPa)           *
 * --------------------------------------------- *
 *             x             y             z     *
 *                                               *
 *  x      1.455063     -0.000004      0.000004  *
 *  y     -0.000004      1.455050     -0.000004  *
 *  z      0.000004     -0.000004      0.701005  *
 *                                               *
 *  Pressure:   -1.2037                          *
 *                                               *
 *************************************************
  
 +------------+-------------+-------------+-----------------+ <-- min LBFGS
 |    Step    |   lambda    |   F.delta'  |    enthalpy     | <-- min LBFGS
 +------------+-------------+-------------+-----------------+ <-- min LBFGS
 |  previous  |    0.000000 |    0.325242 |    -2932.173500 | <-- min LBFGS
 | trial step |    1.000000 |    0.245658 |    -2932.330692 | <-- min LBFGS
 +------------+-------------+-------------+-----------------+ <-- min LBFGS
  

--------------------------------------------------------------------------------
 LBFGS: improving iteration         2 with line minimization (lambda=  4.086756)
--------------------------------------------------------------------------------
 
+---------------- MEMORY AND SCRATCH DISK ESTIMATES PER PROCESS --------------+
|                                                     Memory          Disk    |
| Model and support data                               78.9 MB         0.0 MB |
| Electronic energy minimisation requirements          15.6 MB         0.0 MB |
| Geometry minimisation requirements                   20.2 MB         0.0 MB |
|                                               ----------------------------- |
| Approx. total storage required per process          114.7 MB         0.0 MB |
|                                                                             |
| Requirements will fluctuate during execution and may exceed these estimates |
+-----------------------------------------------------------------------------+
 

                           -------------------------------
                                      Unit Cell
                           -------------------------------
        Real Lattice(A)              Reciprocal Lattice(1/A)
     2.5481738     1.4711890     4.5592294        1.232880023   0.711803483   0.459374844
    -2.5481739     1.4711889     4.5592295       -1.232880016   0.711803496   0.459374805
    -0.0000001    -2.9423783     4.5592292        0.000000014  -1.423607049   0.459374768

                       Lattice parameters(A)       Cell Angles
                    a =      5.426247          alpha =   56.016869
                    b =      5.426247          beta  =   56.016871
                    c =      5.426247          gamma =   56.016864

                Current cell volume =           102.551080 A**3
                            density =             1.988497 amu/A**3
                                    =             3.301978 g/cm^3

                           -------------------------------
                                     Cell Contents
                           -------------------------------

            xxxxxxxxxxxxxxxxxxxxxxxxxxxxxxxxxxxxxxxxxxxxxxxxxxxxxxxxxxxxxxxxx
            x  Element         Atom        Fractional coordinates of atoms  x
            x                 Number           u          v          w      x
            x---------------------------------------------------------------x
            x  O                 1         0.544801   0.955190   0.249995   x
            x  O                 2         0.955190   0.249995   0.544801   x
            x  O                 3         0.249995   0.544801   0.955190   x
            x  O                 4         0.044810   0.750005   0.455199   x
            x  O                 5         0.750005   0.455199   0.044810   x
            x  O                 6         0.455199   0.044810   0.750005   x
            x  Al                1         0.147956   0.147956   0.147956   x
            x  Al                2         0.647947   0.647947   0.647947   x
            x  Al                3         0.852044   0.852044   0.852044   x
            x  Al                4         0.352053   0.352053   0.352053   x
            xxxxxxxxxxxxxxxxxxxxxxxxxxxxxxxxxxxxxxxxxxxxxxxxxxxxxxxxxxxxxxxxx


------------------------------------------------------------------------ <-- SCF
SCF loop      Energy           Fermi           Energy gain       Timer   <-- SCF
                               energy          per atom          (sec)   <-- SCF
------------------------------------------------------------------------ <-- SCF
Initial  -2.91676192E+003  0.00000000E+000                        51.55  <-- SCF
      1  -2.93612267E+003  4.58063014E+000   1.93607544E+000      52.31  <-- SCF
      2  -2.93628054E+003  4.58521853E+000   1.57865706E-002      53.31  <-- SCF
      3  -2.93259500E+003  5.19301435E+000  -3.68554026E-001      54.19  <-- SCF
      4  -2.93248897E+003  4.96861229E+000  -1.06030662E-002      55.17  <-- SCF
      5  -2.93247884E+003  5.02807437E+000  -1.01315700E-003      56.14  <-- SCF
      6  -2.93247912E+003  5.03080884E+000   2.78896892E-005      57.06  <-- SCF
      7  -2.93247915E+003  5.03197539E+000   3.17536958E-006      57.72  <-- SCF
      8  -2.93247915E+003  5.03227877E+000   1.42617083E-007      58.34  <-- SCF
------------------------------------------------------------------------ <-- SCF
 
Final energy, E             =  -2932.479091670     eV
Final free energy (E-TS)    =  -2932.479148732     eV
(energies not corrected for finite basis set)
 
NB est. 0K energy (E-0.5TS)      =  -2932.479120201     eV
 

 ************************************** Forces **************************************
 *                                                                                  *
 *                           Cartesian components (eV/A)                            *
 * -------------------------------------------------------------------------------- *
 *                         x                    y                    z              *
 *                                                                                  *
 * O               1     -0.53006              0.00092             -0.00044         *
 * O               2      0.26582              0.45858             -0.00044         *
 * O               3      0.26424             -0.45950             -0.00044         *
 * O               4     -0.26582             -0.45859              0.00044         *
 * O               5     -0.26424              0.45951              0.00044         *
 * O               6      0.53006             -0.00092              0.00044         *
 * Al              1      0.00000             -0.00000             -0.37146         *
 * Al              2      0.00000              0.00000             -0.37282         *
 * Al              3     -0.00000              0.00000              0.37147         *
 * Al              4     -0.00000             -0.00000              0.37281         *
 *                                                                                  *
 ************************************************************************************

 ***************** Stress Tensor *****************
 *                                               *
 *          Cartesian components (GPa)           *
 * --------------------------------------------- *
 *             x             y             z     *
 *                                               *
 *  x      6.413837     -0.000002     -0.000002  *
 *  y     -0.000002      6.413840     -0.000002  *
 *  z     -0.000002     -0.000002      5.010945  *
 *                                               *
 *  Pressure:   -5.9462                          *
 *                                               *
 *************************************************
  
 +------------+-------------+-------------+-----------------+ <-- min LBFGS
 |    Step    |   lambda    |   F.delta'  |    enthalpy     | <-- min LBFGS
 +------------+-------------+-------------+-----------------+ <-- min LBFGS
 |  previous  |    0.000000 |    0.325242 |    -2932.173500 | <-- min LBFGS
 | trial step |    1.000000 |    0.245658 |    -2932.330692 | <-- min LBFGS
 |  line step |    4.086756 |   -0.057398 |    -2932.590928 | <-- min LBFGS
 +------------+-------------+-------------+-----------------+ <-- min LBFGS
  
 LBFGS: finished iteration     2 with enthalpy= -2.93259093E+003 eV
  
 +-----------+-----------------+-----------------+------------+-----+ <-- LBFGS
 | Parameter |      value      |    tolerance    |    units   | OK? | <-- LBFGS
 +-----------+-----------------+-----------------+------------+-----+ <-- LBFGS
 |  dE/ion   |   4.174281E-002 |   1.000000E-005 |         eV | No  | <-- LBFGS
 |  |F|max   |   5.300652E-001 |   1.000000E-002 |       eV/A | No  | <-- LBFGS
 |  |dR|max  |   4.224884E-002 |   1.000000E-003 |          A | No  | <-- LBFGS
 |   Smax    |   6.413840E+000 |   1.000000E-001 |        GPa | No  | <-- LBFGS
 +-----------+-----------------+-----------------+------------+-----+ <-- LBFGS
  

================================================================================
 Starting LBFGS iteration          3 ...
================================================================================
  
 +------------+-------------+-------------+-----------------+ <-- min LBFGS
 |    Step    |   lambda    |   F.delta'  |    enthalpy     | <-- min LBFGS
 +------------+-------------+-------------+-----------------+ <-- min LBFGS
 |  previous  |    0.000000 |    0.262136 |    -2932.590928 | <-- min LBFGS
 +------------+-------------+-------------+-----------------+ <-- min LBFGS
  

--------------------------------------------------------------------------------
 LBFGS: starting iteration         3 with trial guess (lambda=  1.000000)
--------------------------------------------------------------------------------

                           -------------------------------
                                      Unit Cell
                           -------------------------------
        Real Lattice(A)              Reciprocal Lattice(1/A)
     2.5295273     1.4604234     4.5333803        1.241968246   0.717050571   0.461994182
    -2.5295274     1.4604234     4.5333804       -1.241968240   0.717050590   0.461994136
    -0.0000001    -2.9208471     4.5333801        0.000000019  -1.434101231   0.461994103

                       Lattice parameters(A)       Cell Angles
                    a =      5.392855          alpha =   55.945513
                    b =      5.392855          beta  =   55.945515
                    c =      5.392855          gamma =   55.945508

                Current cell volume =           100.482768 A**3
                            density =             2.029428 amu/A**3
                                    =             3.369945 g/cm^3

                           -------------------------------
                                     Cell Contents
                           -------------------------------

            xxxxxxxxxxxxxxxxxxxxxxxxxxxxxxxxxxxxxxxxxxxxxxxxxxxxxxxxxxxxxxxxx
            x  Element         Atom        Fractional coordinates of atoms  x
            x                 Number           u          v          w      x
            x---------------------------------------------------------------x
            x  O                 1         0.544206   0.955786   0.249994   x
            x  O                 2         0.955786   0.249994   0.544206   x
            x  O                 3         0.249994   0.544206   0.955786   x
            x  O                 4         0.044214   0.750006   0.455794   x
            x  O                 5         0.750006   0.455794   0.044214   x
            x  O                 6         0.455794   0.044214   0.750006   x
            x  Al                1         0.147802   0.147802   0.147802   x
            x  Al                2         0.647793   0.647793   0.647793   x
            x  Al                3         0.852198   0.852198   0.852198   x
            x  Al                4         0.352207   0.352207   0.352207   x
            xxxxxxxxxxxxxxxxxxxxxxxxxxxxxxxxxxxxxxxxxxxxxxxxxxxxxxxxxxxxxxxxx


------------------------------------------------------------------------ <-- SCF
SCF loop      Energy           Fermi           Energy gain       Timer   <-- SCF
                               energy          per atom          (sec)   <-- SCF
------------------------------------------------------------------------ <-- SCF
Initial  -2.93234685E+003  0.00000000E+000                        60.79  <-- SCF
      1  -2.93261119E+003  5.44361725E+000   2.64341541E-002      61.59  <-- SCF
      2  -2.93261304E+003  5.44359315E+000   1.84964437E-004      62.60  <-- SCF
      3  -2.93254775E+003  5.27468902E+000  -6.52911568E-003      63.49  <-- SCF
      4  -2.93253345E+003  5.33631572E+000  -1.43001360E-003      64.37  <-- SCF
      5  -2.93253354E+003  5.33312375E+000   9.08230744E-006      65.26  <-- SCF
      6  -2.93253354E+003  5.33227396E+000  -3.49132335E-007      65.86  <-- SCF
------------------------------------------------------------------------ <-- SCF
 
Final energy, E             =  -2932.533520435     eV
Final free energy (E-TS)    =  -2932.533540176     eV
(energies not corrected for finite basis set)
 
NB est. 0K energy (E-0.5TS)      =  -2932.533530305     eV
 

 ************************************** Forces **************************************
 *                                                                                  *
 *                           Cartesian components (eV/A)                            *
 * -------------------------------------------------------------------------------- *
 *                         x                    y                    z              *
 *                                                                                  *
 * O               1     -0.50181              0.00082             -0.00055         *
 * O               2      0.25161              0.43417             -0.00055         *
 * O               3      0.25020             -0.43499             -0.00055         *
 * O               4     -0.25161             -0.43418              0.00055         *
 * O               5     -0.25020              0.43499              0.00055         *
 * O               6      0.50182             -0.00082              0.00055         *
 * Al              1      0.00000             -0.00000             -0.39989         *
 * Al              2      0.00000             -0.00000             -0.40199         *
 * Al              3     -0.00000             -0.00000              0.39989         *
 * Al              4     -0.00000             -0.00000              0.40199         *
 *                                                                                  *
 ************************************************************************************

 ***************** Stress Tensor *****************
 *                                               *
 *          Cartesian components (GPa)           *
 * --------------------------------------------- *
 *             x             y             z     *
 *                                               *
 *  x      3.866091     -0.000004     -0.000006  *
 *  y     -0.000004      3.866093      0.000000  *
 *  z     -0.000006      0.000000      2.645667  *
 *                                               *
 *  Pressure:   -3.4593                          *
 *                                               *
 *************************************************
  
 +------------+-------------+-------------+-----------------+ <-- min LBFGS
 |    Step    |   lambda    |   F.delta'  |    enthalpy     | <-- min LBFGS
 +------------+-------------+-------------+-----------------+ <-- min LBFGS
 |  previous  |    0.000000 |    0.262136 |    -2932.590928 | <-- min LBFGS
 | trial step |    1.000000 |    0.165923 |    -2932.590028 | <-- min LBFGS
 +------------+-------------+-------------+-----------------+ <-- min LBFGS
  

--------------------------------------------------------------------------------
 LBFGS: improving iteration         3 with line minimization (lambda=  2.724521)
--------------------------------------------------------------------------------

                           -------------------------------
                                      Unit Cell
                           -------------------------------
        Real Lattice(A)              Reciprocal Lattice(1/A)
     2.4973710     1.4418580     4.4888029        1.257959905   0.726283358   0.466582155
    -2.4973711     1.4418579     4.4888030       -1.257959902   0.726283389   0.466582096
    -0.0000001    -2.8837162     4.4888027        0.000000028  -1.452566819   0.466582071

                       Lattice parameters(A)       Cell Angles
                    a =      5.335276          alpha =   55.820333
                    b =      5.335276          beta  =   55.820335
                    c =      5.335276          gamma =   55.820328

                Current cell volume =            96.981157 A**3
                            density =             2.102703 amu/A**3
                                    =             3.491620 g/cm^3

                           -------------------------------
                                     Cell Contents
                           -------------------------------

            xxxxxxxxxxxxxxxxxxxxxxxxxxxxxxxxxxxxxxxxxxxxxxxxxxxxxxxxxxxxxxxxx
            x  Element         Atom        Fractional coordinates of atoms  x
            x                 Number           u          v          w      x
            x---------------------------------------------------------------x
            x  O                 1         0.543180   0.956814   0.249992   x
            x  O                 2         0.956814   0.249992   0.543180   x
            x  O                 3         0.249992   0.543180   0.956813   x
            x  O                 4         0.043186   0.750008   0.456820   x
            x  O                 5         0.750008   0.456820   0.043186   x
            x  O                 6         0.456820   0.043187   0.750008   x
            x  Al                1         0.147538   0.147538   0.147537   x
            x  Al                2         0.647528   0.647528   0.647528   x
            x  Al                3         0.852463   0.852463   0.852462   x
            x  Al                4         0.352472   0.352472   0.352472   x
            xxxxxxxxxxxxxxxxxxxxxxxxxxxxxxxxxxxxxxxxxxxxxxxxxxxxxxxxxxxxxxxxx


------------------------------------------------------------------------ <-- SCF
SCF loop      Energy           Fermi           Energy gain       Timer   <-- SCF
                               energy          per atom          (sec)   <-- SCF
------------------------------------------------------------------------ <-- SCF
Initial  -2.93207821E+003  0.00000000E+000                        68.29  <-- SCF
      1  -2.93279561E+003  6.03087853E+000   7.17406076E-002      69.08  <-- SCF
      2  -2.93280026E+003  6.03077430E+000   4.64841526E-004      70.05  <-- SCF
      3  -2.93260819E+003  5.74069986E+000  -1.92070918E-002      70.93  <-- SCF
      4  -2.93256970E+003  5.84481175E+000  -3.84928187E-003      71.82  <-- SCF
      5  -2.93256991E+003  5.83962892E+000   2.08700736E-005      72.73  <-- SCF
      6  -2.93256989E+003  5.83836658E+000  -1.16310589E-006      73.34  <-- SCF
      7  -2.93256989E+003  5.83841180E+000   2.31275774E-009      73.96  <-- SCF
------------------------------------------------------------------------ <-- SCF
 
Final energy, E             =  -2932.569892756     eV
Final free energy (E-TS)    =  -2932.569893694     eV
(energies not corrected for finite basis set)
 
NB est. 0K energy (E-0.5TS)      =  -2932.569893225     eV
 

 ************************************** Forces **************************************
 *                                                                                  *
 *                           Cartesian components (eV/A)                            *
 * -------------------------------------------------------------------------------- *
 *                         x                    y                    z              *
 *                                                                                  *
 * O               1     -0.25027              0.00054             -0.00063         *
 * O               2      0.12560              0.21646             -0.00063         *
 * O               3      0.12467             -0.21701             -0.00063         *
 * O               4     -0.12560             -0.21647              0.00063         *
 * O               5     -0.12467              0.21701              0.00063         *
 * O               6      0.25027             -0.00054              0.00063         *
 * Al              1      0.00000              0.00000             -0.46161         *
 * Al              2      0.00000             -0.00000             -0.46457         *
 * Al              3     -0.00000             -0.00000              0.46162         *
 * Al              4     -0.00000              0.00000              0.46457         *
 *                                                                                  *
 ************************************************************************************

 ***************** Stress Tensor *****************
 *                                               *
 *          Cartesian components (GPa)           *
 * --------------------------------------------- *
 *             x             y             z     *
 *                                               *
 *  x     -1.262710     -0.000003     -0.000006  *
 *  y     -0.000003     -1.262712     -0.000000  *
 *  z     -0.000006     -0.000000     -1.426747  *
 *                                               *
 *  Pressure:    1.3174                          *
 *                                               *
 *************************************************
  
 +------------+-------------+-------------+-----------------+ <-- min LBFGS
 |    Step    |   lambda    |   F.delta'  |    enthalpy     | <-- min LBFGS
 +------------+-------------+-------------+-----------------+ <-- min LBFGS
 |  previous  |    0.000000 |    0.262136 |    -2932.590928 | <-- min LBFGS
 | trial step |    1.000000 |    0.165923 |    -2932.590028 | <-- min LBFGS
 |  line step |    2.724521 |   -0.023290 |    -2932.453823 | <-- min LBFGS
 +------------+-------------+-------------+-----------------+ <-- min LBFGS
  
 LBFGS: finished iteration     3 with enthalpy= -2.93245382E+003 eV
  
 +-----------+-----------------+-----------------+------------+-----+ <-- LBFGS
 | Parameter |      value      |    tolerance    |    units   | OK? | <-- LBFGS
 +-----------+-----------------+-----------------+------------+-----+ <-- LBFGS
 |  dE/ion   |   1.371054E-002 |   1.000000E-005 |         eV | No  | <-- LBFGS
 |  |F|max   |   4.645727E-001 |   1.000000E-002 |       eV/A | No  | <-- LBFGS
 |  |dR|max  |   8.101639E-003 |   1.000000E-003 |          A | No  | <-- LBFGS
 |   Smax    |   1.426747E+000 |   1.000000E-001 |        GPa | No  | <-- LBFGS
 +-----------+-----------------+-----------------+------------+-----+ <-- LBFGS
  

================================================================================
 Starting LBFGS iteration          4 ...
================================================================================
  
 +------------+-------------+-------------+-----------------+ <-- min LBFGS
 |    Step    |   lambda    |   F.delta'  |    enthalpy     | <-- min LBFGS
 +------------+-------------+-------------+-----------------+ <-- min LBFGS
 |  previous  |    0.000000 |    0.118070 |    -2932.453823 | <-- min LBFGS
 +------------+-------------+-------------+-----------------+ <-- min LBFGS
  

--------------------------------------------------------------------------------
 LBFGS: starting iteration         4 with trial guess (lambda=  1.000000)
--------------------------------------------------------------------------------

                           -------------------------------
                                      Unit Cell
                           -------------------------------
        Real Lattice(A)              Reciprocal Lattice(1/A)
     2.5047865     1.4461394     4.5004151        1.254235653   0.724133142   0.465378256
    -2.5047867     1.4461393     4.5004152       -1.254235654   0.724133184   0.465378190
    -0.0000002    -2.8922789     4.5004149        0.000000036  -1.448266405   0.465378179

                       Lattice parameters(A)       Cell Angles
                    a =      5.349674          alpha =   55.836720
                    b =      5.349674          beta  =   55.836722
                    c =      5.349674          gamma =   55.836715

                Current cell volume =            97.810328 A**3
                            density =             2.084878 amu/A**3
                                    =             3.462021 g/cm^3

                           -------------------------------
                                     Cell Contents
                           -------------------------------

            xxxxxxxxxxxxxxxxxxxxxxxxxxxxxxxxxxxxxxxxxxxxxxxxxxxxxxxxxxxxxxxxx
            x  Element         Atom        Fractional coordinates of atoms  x
            x                 Number           u          v          w      x
            x---------------------------------------------------------------x
            x  O                 1         0.541120   0.958873   0.249990   x
            x  O                 2         0.958873   0.249990   0.541120   x
            x  O                 3         0.249990   0.541120   0.958873   x
            x  O                 4         0.041127   0.750010   0.458880   x
            x  O                 5         0.750010   0.458880   0.041127   x
            x  O                 6         0.458880   0.041127   0.750010   x
            x  Al                1         0.147290   0.147290   0.147290   x
            x  Al                2         0.647278   0.647278   0.647278   x
            x  Al                3         0.852710   0.852710   0.852710   x
            x  Al                4         0.352722   0.352722   0.352722   x
            xxxxxxxxxxxxxxxxxxxxxxxxxxxxxxxxxxxxxxxxxxxxxxxxxxxxxxxxxxxxxxxxx


------------------------------------------------------------------------ <-- SCF
SCF loop      Energy           Fermi           Energy gain       Timer   <-- SCF
                               energy          per atom          (sec)   <-- SCF
------------------------------------------------------------------------ <-- SCF
Initial  -2.93000755E+003  0.00000000E+000                        76.43  <-- SCF
      1  -2.93314310E+003  5.59932298E+000   3.13554495E-001      77.20  <-- SCF
      2  -2.93315485E+003  5.59931865E+000   1.17520944E-003      78.14  <-- SCF
      3  -2.93279979E+003  5.72639620E+000  -3.55059919E-002      79.00  <-- SCF
      4  -2.93279478E+003  5.67506963E+000  -5.01320718E-004      79.92  <-- SCF
      5  -2.93279419E+003  5.68945900E+000  -5.81997297E-005      80.84  <-- SCF
      6  -2.93279421E+003  5.68959095E+000   1.86080950E-006      81.53  <-- SCF
      7  -2.93279422E+003  5.68980701E+000   2.57823300E-007      82.12  <-- SCF
------------------------------------------------------------------------ <-- SCF
 
Final energy, E             =  -2932.794214093     eV
Final free energy (E-TS)    =  -2932.794215112     eV
(energies not corrected for finite basis set)
 
NB est. 0K energy (E-0.5TS)      =  -2932.794214602     eV
 

 ************************************** Forces **************************************
 *                                                                                  *
 *                           Cartesian components (eV/A)                            *
 * -------------------------------------------------------------------------------- *
 *                         x                    y                    z              *
 *                                                                                  *
 * O               1      0.03705              0.00025             -0.00062         *
 * O               2     -0.01831             -0.03221             -0.00062         *
 * O               3     -0.01874              0.03196             -0.00062         *
 * O               4      0.01831              0.03221              0.00062         *
 * O               5      0.01874             -0.03196              0.00062         *
[...]
 * --------------------------------------------- *
 *             x             y             z     *
 *                                               *
 *  x     -0.092711     -0.000001     -0.000003  *
 *  y     -0.000001     -0.092709     -0.000000  *
 *  z     -0.000003     -0.000000     -0.120659  *
 *                                               *
 *  Pressure:    0.1020                          *
 *                                               *
 *************************************************
  
 +------------+-------------+-------------+-----------------+ <-- min LBFGS
 |    Step    |   lambda    |   F.delta'  |    enthalpy     | <-- min LBFGS
 +------------+-------------+-------------+-----------------+ <-- min LBFGS
 |  previous  |    0.000000 |    0.000742 |    -2932.569474 | <-- min LBFGS
 | trial step |    1.000000 |   -0.001538 |    -2932.561538 | <-- min LBFGS
 +------------+-------------+-------------+-----------------+ <-- min LBFGS
  

--------------------------------------------------------------------------------
 LBFGS: improving iteration        15 with line minimization (lambda=  0.325526)
--------------------------------------------------------------------------------

                           -------------------------------
                                      Unit Cell
                           -------------------------------
        Real Lattice(A)              Reciprocal Lattice(1/A)
     2.5113564     1.4499324     4.4699233        1.250954459   0.722238783   0.468552881
    -2.5113567     1.4499323     4.4699235       -1.250954451   0.722238834   0.468552776
    -0.0000002    -2.8998652     4.4699232        0.000000048  -1.444477678   0.468552753

                       Lattice parameters(A)       Cell Angles
                    a =      5.328173          alpha =   56.242029
                    b =      5.328173          beta  =   56.242032
                    c =      5.328173          gamma =   56.242027

                Current cell volume =            97.657923 A**3
                            density =             2.088131 amu/A**3
                                    =             3.467423 g/cm^3

                           -------------------------------
                                     Cell Contents
                           -------------------------------

            xxxxxxxxxxxxxxxxxxxxxxxxxxxxxxxxxxxxxxxxxxxxxxxxxxxxxxxxxxxxxxxxx
            x  Element         Atom        Fractional coordinates of atoms  x
            x                 Number           u          v          w      x
            x---------------------------------------------------------------x
            x  O                 1         0.539803   0.960178   0.249980   x
            x  O                 2         0.960178   0.249981   0.539803   x
            x  O                 3         0.249981   0.539803   0.960178   x
            x  O                 4         0.039822   0.750020   0.460197   x
            x  O                 5         0.750020   0.460197   0.039822   x
            x  O                 6         0.460197   0.039822   0.750019   x
            x  Al                1         0.143951   0.143951   0.143951   x
            x  Al                2         0.643931   0.643931   0.643930   x
            x  Al                3         0.856049   0.856049   0.856049   x
            x  Al                4         0.356069   0.356069   0.356069   x
            xxxxxxxxxxxxxxxxxxxxxxxxxxxxxxxxxxxxxxxxxxxxxxxxxxxxxxxxxxxxxxxxx


------------------------------------------------------------------------ <-- SCF
SCF loop      Energy           Fermi           Energy gain       Timer   <-- SCF
                               energy          per atom          (sec)   <-- SCF
------------------------------------------------------------------------ <-- SCF
Initial  -2.93272967E+003  0.00000000E+000                       199.10  <-- SCF
      1  -2.93282827E+003  5.71602779E+000   9.86034412E-003     199.79  <-- SCF
      2  -2.93282855E+003  5.71602896E+000   2.73632048E-005     200.43  <-- SCF
      3  -2.93282852E+003  5.71899772E+000  -2.24477620E-006     201.01  <-- SCF
      4  -2.93282852E+003  5.71796096E+000  -2.73323200E-007     201.57  <-- SCF
------------------------------------------------------------------------ <-- SCF
 
Final energy, E             =  -2932.828518873     eV
Final free energy (E-TS)    =  -2932.828521297     eV
(energies not corrected for finite basis set)
 
NB est. 0K energy (E-0.5TS)      =  -2932.828520085     eV
 

 ************************************** Forces **************************************
 *                                                                                  *
 *                           Cartesian components (eV/A)                            *
 * -------------------------------------------------------------------------------- *
 *                         x                    y                    z              *
 *                                                                                  *
 * O               1      0.00233             -0.00025             -0.00031         *
 * O               2     -0.00138             -0.00189             -0.00031         *
 * O               3     -0.00095              0.00214             -0.00031         *
 * O               4      0.00138              0.00189              0.00031         *
 * O               5      0.00095             -0.00214              0.00031         *
 * O               6     -0.00233              0.00025              0.00031         *
 * Al              1     -0.00000              0.00000             -0.00106         *
 * Al              2     -0.00000             -0.00000              0.00025         *
 * Al              3      0.00000             -0.00000              0.00106         *
 * Al              4      0.00000              0.00000             -0.00026         *
 *                                                                                  *
 ************************************************************************************

 ***************** Stress Tensor *****************
 *                                               *
 *          Cartesian components (GPa)           *
 * --------------------------------------------- *
 *             x             y             z     *
 *                                               *
 *  x      0.016038      0.000000     -0.000002  *
 *  y      0.000000      0.016040     -0.000000  *
 *  z     -0.000002     -0.000000      0.034827  *
 *                                               *
 *  Pressure:   -0.0223                          *
 *                                               *
 *************************************************
  
 +------------+-------------+-------------+-----------------+ <-- min LBFGS
 |    Step    |   lambda    |   F.delta'  |    enthalpy     | <-- min LBFGS
 +------------+-------------+-------------+-----------------+ <-- min LBFGS
 |  previous  |    0.000000 |    0.000742 |    -2932.569474 | <-- min LBFGS
 | trial step |    1.000000 |   -0.001538 |    -2932.561538 | <-- min LBFGS
 |  line step |    0.325526 |    0.000459 |    -2932.569475 | <-- min LBFGS
 +------------+-------------+-------------+-----------------+ <-- min LBFGS
  
 LBFGS: finished iteration    15 with enthalpy= -2.93256948E+003 eV
  
 +-----------+-----------------+-----------------+------------+-----+ <-- LBFGS
 | Parameter |      value      |    tolerance    |    units   | OK? | <-- LBFGS
 +-----------+-----------------+-----------------+------------+-----+ <-- LBFGS
 |  dE/ion   |   1.701920E-007 |   1.000000E-005 |         eV | Yes | <-- LBFGS
 |  |F|max   |   2.362267E-003 |   1.000000E-002 |       eV/A | Yes | <-- LBFGS
 |  |dR|max  |   6.403538E-005 |   1.000000E-003 |          A | Yes | <-- LBFGS
 |   Smax    |   3.482700E-002 |   1.000000E-001 |        GPa | Yes | <-- LBFGS
 +-----------+-----------------+-----------------+------------+-----+ <-- LBFGS
  
 LBFGS: Geometry optimization completed successfully.

================================================================================
 LBFGS: Final Configuration:
================================================================================

                           -------------------------------
                                      Unit Cell
                           -------------------------------
        Real Lattice(A)              Reciprocal Lattice(1/A)
     2.5113564     1.4499324     4.4699233        1.250954459   0.722238783   0.468552881
    -2.5113567     1.4499323     4.4699235       -1.250954451   0.722238834   0.468552776
    -0.0000002    -2.8998652     4.4699232        0.000000048  -1.444477678   0.468552753

                       Lattice parameters(A)       Cell Angles
                    a =      5.328173          alpha =   56.242029
                    b =      5.328173          beta  =   56.242032
                    c =      5.328173          gamma =   56.242027

                Current cell volume =            97.657923 A**3
                            density =             2.088131 amu/A**3
                                    =             3.467423 g/cm^3

                           -------------------------------
                                     Cell Contents
                           -------------------------------

            xxxxxxxxxxxxxxxxxxxxxxxxxxxxxxxxxxxxxxxxxxxxxxxxxxxxxxxxxxxxxxxxx
            x  Element         Atom        Fractional coordinates of atoms  x
            x                 Number           u          v          w      x
            x---------------------------------------------------------------x
            x  O                 1         0.539803   0.960178   0.249980   x
            x  O                 2         0.960178   0.249981   0.539803   x
            x  O                 3         0.249981   0.539803   0.960178   x
            x  O                 4         0.039822   0.750020   0.460197   x
            x  O                 5         0.750020   0.460197   0.039822   x
            x  O                 6         0.460197   0.039822   0.750019   x
            x  Al                1         0.143951   0.143951   0.143951   x
            x  Al                2         0.643931   0.643931   0.643930   x
            x  Al                3         0.856049   0.856049   0.856049   x
            x  Al                4         0.356069   0.356069   0.356069   x
            xxxxxxxxxxxxxxxxxxxxxxxxxxxxxxxxxxxxxxxxxxxxxxxxxxxxxxxxxxxxxxxxx


 LBFGS: Final Enthalpy     = -2.93256948E+003 eV
 LBFGS: Final <frequency>  =     950.15154 cm-1
 LBFGS: Final bulk modulus =     243.73138 GPa

 ************************************** Forces **************************************
 *                                                                                  *
 *                           Cartesian components (eV/A)                            *
 * -------------------------------------------------------------------------------- *
 *                         x                    y                    z              *
 *                                                                                  *
 * O               1      0.00233             -0.00025             -0.00031         *
 * O               2     -0.00138             -0.00189             -0.00031         *
 * O               3     -0.00095              0.00214             -0.00031         *
 * O               4      0.00138              0.00189              0.00031         *
 * O               5      0.00095             -0.00214              0.00031         *
 * O               6     -0.00233              0.00025              0.00031         *
 * Al              1     -0.00000              0.00000             -0.00106         *
 * Al              2     -0.00000             -0.00000              0.00025         *
 * Al              3      0.00000             -0.00000              0.00106         *
 * Al              4      0.00000              0.00000             -0.00026         *
 *                                                                                  *
 ************************************************************************************

 ***************** Stress Tensor *****************
 *                                               *
 *          Cartesian components (GPa)           *
 * --------------------------------------------- *
 *             x             y             z     *
 *                                               *
 *  x      0.016038      0.000000     -0.000002  *
 *  y      0.000000      0.016040     -0.000000  *
 *  z     -0.000002     -0.000000      0.034827  *
 *                                               *
 *  Pressure:   -0.0223                          *
 *                                               *
 *************************************************

 Pseudo atomic calculation performed for O 2s2 2p4

 Converged in 21 iterations to a total energy of -405.3127 eV

 Pseudo atomic calculation performed for Al 3s2 3p1

 Converged in 11 iterations to a total energy of -105.9158 eV
Charge spilling parameter for spin component 1 = 0.74%

            Orbital Populations       
     Ion    Atom   Orbital             Charge
  -------------------------------------------
      O     1      S                    1.907
      O     1      Px                   1.692
      O     1      Py                   1.713
      O     1      Pz                   1.719
      O     2      S                    1.907
      O     2      Px                   1.708
      O     2      Py                   1.697
      O     2      Pz                   1.720
      O     3      S                    1.907
      O     3      Px                   1.708
      O     3      Py                   1.697
      O     3      Pz                   1.720
      O     4      S                    1.907
      O     4      Px                   1.708
      O     4      Py                   1.697
      O     4      Pz                   1.720
      O     5      S                    1.907
      O     5      Px                   1.708
      O     5      Py                   1.697
      O     5      Pz                   1.719
      O     6      S                    1.907
      O     6      Px                   1.692
      O     6      Py                   1.713
      O     6      Pz                   1.720
     Al     1      S                    0.585
     Al     1      Px                   0.289
     Al     1      Py                   0.289
     Al     1      Pz                   0.291
     Al     2      S                    0.585
     Al     2      Px                   0.289
     Al     2      Py                   0.289
     Al     2      Pz                   0.291
     Al     3      S                    0.585
     Al     3      Px                   0.289
     Al     3      Py                   0.289
     Al     3      Pz                   0.291
     Al     4      S                    0.585
     Al     4      Px                   0.289
     Al     4      Py                   0.289
     Al     4      Pz                   0.291
  -------------------------------------------
                           Total:      48.000
  -------------------------------------------

     Atomic Populations (Mulliken)
     -----------------------------
Species          Ion     s      p      d      f     Total  Charge (e)
=====================================================================
  O               1     1.91   5.12   0.00   0.00   7.03    -1.03
  O               2     1.91   5.12   0.00   0.00   7.03    -1.03
  O               3     1.91   5.12   0.00   0.00   7.03    -1.03
  O               4     1.91   5.12   0.00   0.00   7.03    -1.03
  O               5     1.91   5.12   0.00   0.00   7.03    -1.03
  O               6     1.91   5.12   0.00   0.00   7.03    -1.03
  Al              1     0.58   0.87   0.00   0.00   1.45     1.55
  Al              2     0.59   0.87   0.00   0.00   1.45     1.55
  Al              3     0.58   0.87   0.00   0.00   1.45     1.55
  Al              4     0.59   0.87   0.00   0.00   1.45     1.55
=====================================================================

                 Bond                   Population      Length (A)
======================================================================
               O 5 -- Al 1                   0.36        1.96906
               O 3 -- Al 3                   0.36        1.96906
               O 6 -- Al 1                   0.36        1.96906
               O 1 -- Al 3                   0.36        1.96906
               O 4 -- Al 1                   0.36        1.96906
               O 2 -- Al 3                   0.36        1.96906
               O 6 -- Al 4                   0.36        1.96914
               O 1 -- Al 2                   0.36        1.96914
               O 5 -- Al 4                   0.36        1.96914
               O 3 -- Al 2                   0.36        1.96914
               O 4 -- Al 4                   0.36        1.96914
               O 2 -- Al 2                   0.36        1.96914
               O 2 -- Al 1                   0.25        2.03489
               O 4 -- Al 3                   0.25        2.03489
               O 1 -- Al 1                   0.25        2.03489
               O 6 -- Al 3                   0.25        2.03489
               O 5 -- Al 3                   0.25        2.03489
               O 3 -- Al 1                   0.25        2.03489
               O 4 -- Al 2                   0.25        2.03532
               O 2 -- Al 4                   0.25        2.03532
               O 3 -- Al 4                   0.25        2.03532
               O 5 -- Al 2                   0.25        2.03532
               O 1 -- Al 4                   0.25        2.03532
               O 6 -- Al 2                   0.25        2.03532
               O 1 -- O 3                   -0.22        2.52125
               O 5 -- O 6                   -0.22        2.52125
               O 1 -- O 2                   -0.22        2.52125
               O 4 -- O 6                   -0.22        2.52125
               O 2 -- O 3                   -0.22        2.52125
               O 4 -- O 5                   -0.22        2.52125
               O 2 -- O 4                   -0.21        2.69362
               O 3 -- O 5                   -0.21        2.69362
               O 1 -- O 6                   -0.21        2.69362
              Al 2 -- Al 3                  -0.50        2.84446
              Al 1 -- Al 4                  -0.50        2.84446
               O 2 -- O 5                   -0.12        2.86538
               O 3 -- O 4                   -0.12        2.86538
               O 3 -- O 6                   -0.12        2.86538
               O 1 -- O 5                   -0.12        2.86538
               O 2 -- O 6                   -0.12        2.86538
               O 1 -- O 4                   -0.12        2.86538
              Al 1 -- Al 3                  -0.61        2.96317
              Al 2 -- Al 4                  -0.61        2.96328
======================================================================


Writing analysis data to al2o3_xc-PBESOL_c-0300_k-5x5x5_geom.castep_bin

Writing model to al2o3_xc-PBESOL_c-0300_k-5x5x5_geom.check
 
 A BibTeX formatted list of references used in this run has been written to 
 al2o3_xc-PBESOL_c-0300_k-5x5x5_geom.bib
 
Initialisation time =      6.96 s
Calculation time    =    197.76 s
Finalisation time   =      0.26 s
Total time          =    204.98 s
Peak Memory Use     = 569912 kB
  
Overall parallel efficiency rating: Excellent (94%)                             
  
Data was distributed by:-
k-point (9-way); efficiency rating: Excellent (95%)                             
  
Parallel notes:
1) Calculation only took 204.7 s, so efficiency estimates may be inaccurate.    
