 +-------------------------------------------------+
 |                                                 |
 |      CCC   AA    SSS  TTTTT  EEEEE  PPPP        |
 |     C     A  A  S       T    E      P   P       |
 |     C     AAAA   SS     T    EEE    PPPP        |
 |     C     A  A     S    T    E      P           |
 |      CCC  A  A  SSS     T    EEEEE  P           |
 |                                                 |
 +-------------------------------------------------+
 |                                                 |
 | Welcome to Academic Release CASTEP version 20.11|          
 | Ab Initio Total Energy Program                  |
 |                                                 |
 | Authors:                                        |
 | M. Segall, M. Probert, C. Pickard, P. Hasnip,   |
 | S. Clark, K. Refson, J. R. Yates, M. Payne      |
 |                                                 |
 | Contributors:                                   |
 | P. Lindan, P. Haynes, J. White, V. Milman,      |
 | N. Govind, M. Gibson, P. Tulip, V. Cocula,      |
 | B. Montanari, D. Quigley, M. Glover,            |
 | L. Bernasconi, A. Perlov, M. Plummer,           |
 | E. McNellis, J. Meyer, J. Gale, D. Jochym       |
 | J. Aarons, B. Walker, R. Gillen, D. Jones       |
 | T. Green, I. J. Bush, C. J. Armstrong,          |
 | E. J. Higgins, E. L. Brown, M. S. McFly,        |
 | J. Wilkins, B-C. Shih, P. J. P. Byrne,          |
 | R. J. Maurer, J. C. Womack, J. Dziedzic,        |
 | J. R. Kermode, A. Bartok-Partay                 |
 |                                                 |
 | Copyright (c) 2000 - 2020                       |
 |                                                 |
 |     Distributed under license from Cambridge    |
 |     Enterprise for academic use only.           |
 |                                                 |
 | Please cite                                     |
 |                                                 |
 |     "First principles methods using CASTEP"     |
 |                                                 |
 |         Zeitschrift fuer Kristallographie       |
 |           220(5-6) pp. 567-570 (2005)           |
 |                                                 |
 | S. J. Clark, M. D. Segall, C. J. Pickard,       |
 | P. J. Hasnip, M. J. Probert, K. Refson,         |
 | M. C. Payne                                     |
 |                                                 |
 |       in all publications arising from          |
 |              your use of CASTEP                 |
 |                                                 |
 +-------------------------------------------------+
 |                                                 |
 |              http://www.castep.org              |
 |                                                 |
 +-------------------------------------------------+
 
 
 
 Compiled for linux_x86_64_ifort on Fri, 22 Oct 2021 12:44:39 +0100
 from code version Version unavailable
 Compiler: Intel Fortran 19.1.0.166; Optimisation: fast
 MATHLIBS: Intel MKL(2020.0.0) (LAPACK version 3.7.0)
 FFT Lib : mkl
 Fundamental constants values: CODATA 2014
 
 Run started: Mon, 15 Nov 2021 12:08:03 +0000

 ******************************* User Parameters *******************************
iprint        : 2              # verbosity control (I)
task          : magres         # type of calculation (S)
optstrategy   : speed          # optimization strategy (S)
xcfunctional  : PBESOL         # exchange-correlation functional (S)
cutoffenergy  : 700.0000000 ev # maximum energy of planewaves in basis set (P)
charge        : 1.0000000      # net charge (R)
numdumpcycles : 0              # frequency of wavefunction dumps (I)
magrestask    : NMR            # MAGRES run type (S)

 *******************************************************************************
  
 +-------------------------------------------------+
 |                                                 |
 |           N   N    M   M    RRRR                |
 |           NN  N    MM MM    R   R               |
 |           N N N    M M M    RRRR                |
 |           N  NN    M   M    R  R                |
 |           N   N    M   M    R   R               |
 |                                                 |
 +-------------------------------------------------+
 |                                                 |
 | Welcome to Materials Studio CASTEP-NMR          |
 |                                                 |
 | Authors:                                        |
 | J.R. Yates, C.J. Pickard, F. Mauri              |
 |                                                 |
 | Contributors:                                   |
 | T.F.G. Green, S.A. Joyce, R.T. Strong,          |
 | B-C. Shih                                       |
 |                                                 |
 | Copyright (c) 2004 - 2020                       |
 |                                                 |
 | Please cite the appropriate publications in all |
 | work arising from your use of CASTEP NMR.       |
 |                                                 |
 | For NMR Shielding Tensors cite:                 |
 |    "All-electron magnetic response with         |
 |    pseudopotentials: NMR chemical shifts",      |
 |    C. J. Pickard, F. Mauri;                     |
 |    Physical Review B63 245101 (2001), and       |
 |                                                 |
 |    "Calculation of NMR Chemical Shifts          |
 |    for extended systems using                   |
 |    Ultrasoft Pseudopotentials",                 |
 |    J. R. Yates, C. J. Pickard and F. Mauri      |
 |    Physical Review B76 024401 (2007)            |
 |                                                 |
 | For Electric Field Gradients cite:              |
 |   "Accurate First Principles Prediction of 17O  |
 |    NMR Parameters in SiO2: Assignment of the    |
 |    Zeolite Ferrierite Spectrum"                 |
 |    M. Profeta, F. Mauri and C. J. Pickard       |
 |    J. Amer. Chem. Soc. 125 541 (2003)           |
 |                                                 |
 | For Spin-Spin (J) Couplings cite:               |
 |   "A first principles theory of NMR J-coupling  |
 |   in solid-state systems"                       |
 |   S.A. Joyce, J.R. Yates, C.J. Pickard, F. Mauri|
 |   J. Chem. Phys. 127 204107 (2007)              |
 |                                                 |
 |   "Relativistic NMR J-coupling with ultrasoft   |
 |   pseudopotentials and the zeroth-order regular |
 |   approximation"                                |
 |   T.F.G. Green and J.R. Yates                   |
 |   J. Chem. Phys. 140 234106 (2014)              |
 |                                                 |
 +-------------------------------------------------+
 
 
 Atomic calculation performed for Li: 1s2 2s1
 
 Converged in 48 iterations to an ae energy of -201.033 eV
 
   ============================================================                
   | Pseudopotential Report - Date of generation 15-11-2021   |                
   ------------------------------------------------------------                
   | Element: Li Ionic charge:  3.00 Level of theory: PBESOL  |                
   | Atomic Solver: Koelling-Harmon                           |                
   |                                                          |                
   |               Reference Electronic Structure             |                
   |         Orbital         Occupation         Energy        |                
   |            1s              2.000           -1.888        |                
   |            2s              1.000           -0.104        |                
   |                                                          |                
   |                 Pseudopotential Definition               |                
   |        Beta     l      e      Rc     scheme   norm       |                
   |          1      0   -1.888   1.001     qc      0         |                
   |          2      0   -0.104   1.001     qc      0         |                
   |          3      0    0.250   1.001     qc      0         |                
   |         loc     1    0.000   1.001     pn      0         |                
   |                                                          |                
   | Augmentation charge Rinner = 0.699                       |                
   | No partial core correction                               |                
   ------------------------------------------------------------                
   | "1|1.0|14|16|18|10U:20(qc=7)"                            |                
   ------------------------------------------------------------                
   |      Author: Chris J. Pickard, Cambridge University      |                
   ============================================================                
 
 Atomic calculation performed for O: 1s2 2s2 2p4
 
 Converged in 57 iterations to an ae energy of -2034.019 eV
 
   ============================================================                
   | Pseudopotential Report - Date of generation 15-11-2021   |                
   ------------------------------------------------------------                
   | Element: O Ionic charge:  6.00 Level of theory: PBESOL   |                
   | Atomic Solver: Koelling-Harmon                           |                
   |                                                          |                
   |               Reference Electronic Structure             |                
   |         Orbital         Occupation         Energy        |                
   |            2s              2.000           -0.875        |                
   |            2p              4.000           -0.330        |                
   |                                                          |                
   |                 Pseudopotential Definition               |                
   |        Beta     l      e      Rc     scheme   norm       |                
   |          1      0   -0.875   1.100     qc      0         |                
   |          2      0    0.250   1.100     qc      0         |                
   |          3      1   -0.330   1.100     qc      0         |                
   |          4      1    0.250   1.100     qc      0         |                
   |         loc     2    0.000   1.100     pn      0         |                
   |                                                          |                
   | Augmentation charge Rinner = 0.769                       |                
   | Partial core correction Rc = 0.769                       |                
   ------------------------------------------------------------                
   | "2|1.1|17|20|23|20:21(qc=8)"                             |                
   ------------------------------------------------------------                
   |      Author: Chris J. Pickard, Cambridge University      |                
   ============================================================                
 
 Atomic calculation performed for Al: 1s2 2s2 2p6 3s2 3p1
 
 Converged in 55 iterations to an ae energy of -6590.489 eV
 
   ============================================================                
   | Pseudopotential Report - Date of generation 15-11-2021   |                
   ------------------------------------------------------------                
   | Element: Al Ionic charge:  3.00 Level of theory: PBESOL  |                
   | Atomic Solver: Koelling-Harmon                           |                
   |                                                          |                
   |               Reference Electronic Structure             |                
   |         Orbital         Occupation         Energy        |                
   |            3s              2.000           -0.284        |                
   |            3p              1.000           -0.099        |                
   |                                                          |                
   |                 Pseudopotential Definition               |                
   |        Beta     l      e      Rc     scheme   norm       |                
   |          1      0   -0.284   2.192     qc      0         |                
   |          2      0    0.250   2.192     qc      0         |                
   |          3      1   -0.099   2.192     qc      0         |                
   |          4      1    0.250   2.192     qc      0         |                
   |          5      2    0.000   2.000     qc      0         |                
   |          6      2    0.250   2.000     qc      0         |                
   |         loc     3    0.000   2.192     pn      0         |                
   |                                                          |                
   | Augmentation charge Rinner = 1.398                       |                
   | Partial core correction Rc = 1.398                       |                
   ------------------------------------------------------------                
   | "3|2.2|2.2|1.4|4|5|5|30:31:32U2U2"                       |                
   ------------------------------------------------------------                
   |      Author: Chris J. Pickard, Cambridge University      |                
   ============================================================                
 
 Pseudo atomic calculation performed for Li 1s2 2s1
 
 Converged in 22 iterations to a total energy of -198.8771 eV
 
 Pseudo atomic calculation performed for O 2s2 2p4
 
 Converged in 33 iterations to a total energy of -431.0588 eV
 
 Pseudo atomic calculation performed for Al 3s2 3p1
 
 Converged in 20 iterations to a total energy of -105.9170 eV
Initialising basis set.
 
Initialising gamma point only basis set.
 
Standard grid dimensions: 120 120 120
Fine grid dimensions:     120 120 120
 
G-vector group:   1
 X-columns:
Process  Num. Cols.  Num. Fine Cols.  Num Weight. Cols.  Num Fine Weight. Cols.
   1         180              180                 35                      35
   2         168              168                 36                      36
   3         182              182                 36                      36
   4         182              182                 36                      36
   5         182              182                 36                      36
   6         181              181                 36                      36
   7         181              181                 36                      36
   8         182              182                 36                      36
   9         181              181                 36                      36
  10         181              181                 36                      36
  11         182              182                 36                      36
  12         182              182                 36                      36
  13         181              181                 36                      36
  14         181              181                 36                      36
  15         182              182                 36                      36
  16         182              182                 36                      36
  17         182              182                 36                      36
  18         182              182                 36                      36
  19         181              181                 36                      36
  20         182              182                 36                      36
  21         182              182                 36                      36
  22         179              179                 36                      36
  23         181              181                 36                      36
  24         181              181                 36                      36
  25         180              180                 36                      36
  26         181              181                 36                      36
  27         180              180                 36                      36
  28         181              181                 36                      36
  29         181              181                 36                      36
  30         181              181                 36                      36
  31         180              180                 36                      36
  32         181              181                 36                      36
  33         180              180                 36                      36
  34         181              181                 36                      36
  35         181              181                 36                      36
  36         181              181                 36                      36
  37         181              181                 36                      36
  38         181              181                 36                      36
  39         181              181                 36                      36
  40         179              179                 36                      36
  41         180              180                 36                      36
  42         166              166                 36                      36
  43         180              180                 36                      36
  44         179              179                 36                      36
  45         180              180                 36                      36
  46         180              180                 36                      36
  47         179              179                 36                      36
  48         180              180                 36                      36
  49         180              180                 36                      36
  50         179              179                 36                      36
  51         180              180                 36                      36
  52         180              180                 36                      36
  53         180              180                 36                      36
  54         180              180                 36                      36
  55         179              179                 36                      36
  56         180              180                 36                      36
  57         180              180                 36                      36
  58         180              180                 36                      36
  59         180              180                 36                      36
  60         180              180                 36                      36
  61         178              178                 36                      36
  62         180              180                 36                      36
  63         180              180                 36                      36
  64         179              179                 36                      36
  65         180              180                 36                      36
  66         180              180                 36                      36
  67         180              180                 36                      36
  68         179              179                 36                      36
  69         178              178                 36                      36
  70         180              180                 34                      34
  71         179              179                 34                      34
  72         179              179                 34                      34
  73         179              179                 34                      34
  74         180              180                 34                      34
  75         180              180                 34                      34
  76         177              177                 34                      34
  77         180              180                 34                      34
  78         180              180                 34                      34
  79         180              180                 34                      34
  80         180              180                 34                      34
Total      14400            14400               2857                    2857
 Y-columns:
Process  Num. Cols.  Num. Fine Cols.  Num Weight. Cols.  Num Fine Weight. Cols.
   1         180              180                101                     101
   2         180              180                101                     101
   3         180              180                101                     101
   4         180              180                101                     101
   5         180              180                101                     101
   6         180              180                101                     101
   7         180              180                101                     101
   8         180              180                101                     101
   9         180              180                101                     101
  10         180              180                101                     101
  11         180              180                101                     101
  12         180              180                101                     101
  13         180              180                101                     101
  14         180              180                101                     101
  15         180              180                101                     101
  16         180              180                101                     101
  17         180              180                101                     101
  18         180              180                101                     101
  19         180              180                101                     101
  20         180              180                101                     101
  21         180              180                101                     101
  22         180              180                101                     101
  23         180              180                101                     101
  24         180              180                101                     101
  25         180              180                101                     101
  26         180              180                101                     101
  27         180              180                101                     101
  28         180              180                101                     101
  29         180              180                101                     101
  30         180              180                101                     101
  31         180              180                101                     101
  32         180              180                101                     101
  33         180              180                101                     101
  34         180              180                101                     101
  35         180              180                101                     101
  36         180              180                101                     101
  37         180              180                101                     101
  38         180              180                101                     101
  39         180              180                101                     101
  40         180              180                101                     101
  41         180              180                100                     100
  42         180              180                100                     100
  43         180              180                100                     100
  44         180              180                100                     100
  45         180              180                100                     100
  46         180              180                100                     100
  47         180              180                100                     100
  48         180              180                100                     100
  49         180              180                100                     100
  50         180              180                100                     100
  51         180              180                100                     100
  52         180              180                100                     100
  53         180              180                100                     100
  54         180              180                100                     100
  55         180              180                100                     100
  56         180              180                100                     100
  57         180              180                100                     100
  58         180              180                100                     100
  59         180              180                100                     100
  60         180              180                100                     100
  61         180              180                100                     100
  62         180              180                100                     100
  63         180              180                100                     100
  64         180              180                100                     100
  65         180              180                100                     100
  66         180              180                100                     100
  67         180              180                100                     100
  68         180              180                100                     100
  69         180              180                100                     100
  70         180              180                100                     100
  71         180              180                100                     100
  72         180              180                100                     100
  73         180              180                100                     100
  74         180              180                100                     100
  75         180              180                100                     100
  76         180              180                100                     100
  77         180              180                100                     100
  78         180              180                100                     100
  79         180              180                100                     100
  80         180              180                100                     100
Total      14400            14400               8040                    8040
 Z-columns:
Process  Num. Cols.  Num. Fine Cols.  Num Weight. Cols.  Num Fine Weight. Cols.
   1         180              180                180                     180
   2         180              180                180                     180
   3         180              180                180                     180
   4         180              180                180                     180
   5         180              180                180                     180
   6         180              180                180                     180
   7         180              180                180                     180
   8         180              180                180                     180
   9         180              180                180                     180
  10         180              180                180                     180
  11         180              180                180                     180
  12         180              180                180                     180
  13         180              180                180                     180
  14         180              180                180                     180
  15         180              180                180                     180
  16         180              180                180                     180
  17         180              180                180                     180
  18         180              180                180                     180
  19         180              180                180                     180
  20         180              180                180                     180
  21         180              180                180                     180
  22         180              180                180                     180
  23         180              180                180                     180
  24         180              180                180                     180
  25         180              180                180                     180
  26         180              180                180                     180
  27         180              180                180                     180
  28         180              180                180                     180
  29         180              180                180                     180
  30         180              180                180                     180
  31         180              180                180                     180
  32         180              180                180                     180
  33         180              180                180                     180
  34         180              180                180                     180
  35         180              180                180                     180
  36         180              180                180                     180
  37         180              180                180                     180
  38         180              180                180                     180
  39         180              180                180                     180
  40         180              180                180                     180
  41         180              180                180                     180
  42         180              180                180                     180
  43         180              180                180                     180
  44         180              180                180                     180
  45         180              180                180                     180
  46         180              180                180                     180
  47         180              180                180                     180
  48         180              180                180                     180
  49         180              180                180                     180
  50         180              180                180                     180
  51         180              180                180                     180
  52         180              180                180                     180
  53         180              180                180                     180
  54         180              180                180                     180
  55         180              180                180                     180
  56         180              180                180                     180
  57         180              180                180                     180
  58         180              180                180                     180
  59         180              180                180                     180
  60         180              180                180                     180
  61         180              180                180                     180
  62         180              180                180                     180
  63         180              180                180                     180
  64         180              180                180                     180
  65         180              180                180                     180
  66         180              180                180                     180
  67         180              180                180                     180
  68         180              180                180                     180
  69         180              180                180                     180
  70         180              180                180                     180
  71         180              180                180                     180
  72         180              180                180                     180
  73         180              180                180                     180
  74         180              180                180                     180
  75         180              180                180                     180
  76         180              180                180                     180
  77         180              180                180                     180
  78         180              180                180                     180
  79         180              180                180                     180
  80         180              180                180                     180
Total      14400            14400              14400                   14400
 
Plane wave load balancing: max   1270 min   1170 average   1215
Gamma point plane wave load balancing: max    635 min    585 average    585
True cut-off energy of basis :  25.724
 Calculation parallelised over 80 processes.
 Data is distributed by G-vector(80-way)

 ************************************ Title ************************************
 

 ***************************** General Parameters ******************************
  
 output verbosity                               : verbose (2)
 write checkpoint data to                       : al2o3_xc-PBESOL_c-0700_k-1x1x1_sc-3x3x3_site-0_nmr.check
 type of calculation                            : Magnetic Resonance
 stress calculation                             : off
 density difference calculation                 : off
 electron localisation func (ELF) calculation   : off
 Hirshfeld analysis                             : off
 molecular orbital projected DOS                : off
 deltaSCF calculation                           : off
 unlimited duration calculation
 timing information                             : on
 memory usage estimate                          : on
 write extra output files                       : on
 write final potential to formatted file        : off
 write final density to formatted file          : off
 write BibTeX reference list                    : on
 write OTFG pseudopotential files               : on
 write electrostatic potential file             : on
 write bands file                               : on
 checkpoint writing                             : both castep_bin and check files
  
 output         length unit                     : A
 output           mass unit                     : amu
 output           time unit                     : ps
 output         charge unit                     : e
 output           spin unit                     : hbar/2
 output         energy unit                     : eV
 output          force unit                     : eV/A
 output       velocity unit                     : A/ps
 output       pressure unit                     : GPa
 output     inv_length unit                     : 1/A
 output      frequency unit                     : cm-1
 output force constant unit                     : eV/A**2
 output         volume unit                     : A**3
 output   IR intensity unit                     : (D/A)**2/amu
 output         dipole unit                     : D
 output         efield unit                     : eV/A/e
 output        entropy unit                     : J/mol/K
 output    efield chi2 unit                     : pm/V
  
 wavefunctions paging                           : none
 random number generator seed                   : randomised (120803802)
 data distribution                              : optimal for this architecture
 optimization strategy                          : maximize speed(+++)

 *********************** Exchange-Correlation Parameters ***********************
  
 using functional                               : PBE for solids (2008)
 relativistic treatment                         : Koelling-Harmon
 DFT+D: Semi-empirical dispersion correction    : off

 ************************* Pseudopotential Parameters **************************
  
 pseudopotential representation                 : reciprocal space
 <beta|phi> representation                      : reciprocal space
 spin-orbit coupling                            : off

 **************************** Basis Set Parameters *****************************
  
 plane wave basis set cut-off                   :   700.0000   eV
 size of standard grid                          :     1.7500
 size of   fine   gmax                          :    23.7206   1/A
 finite basis set correction                    : none

 **************************** Electronic Parameters ****************************
  
 number of  electrons                           :  1298.    
 net charge of system                           : +1.000    
 treating system as non-spin-polarized
 number of bands                                :        779

 ********************* Electronic Minimization Parameters **********************
  
 Method: Treating system as metallic with density mixing treatment of electrons,
         and number of  SD  steps               :          1
         and number of  CG  steps               :          4
  
 total energy / atom convergence tol.           : 0.1000E-07   eV
 eigen-energy convergence tolerance             : 0.4176E-08   eV
 max force / atom convergence tol.              : ignored
 convergence tolerance window                   :          3   cycles
 max. number of SCF cycles                      :         30
 number of fixed-spin iterations                :         10
 smearing scheme                                : Gaussian
 smearing width                                 : 0.2000       eV
 Fermi energy convergence tolerance             : 0.2721E-13   eV
 periodic dipole correction                     : NONE

 ************************** Density Mixing Parameters **************************
  
 density-mixing scheme                          : Broyden
 max. length of mixing history                  :         20
 charge density mixing amplitude                : 0.8000    
 cut-off energy for mixing                      :  700.0       eV

 *********************** Population Analysis Parameters ************************
  
 Population analysis with cutoff                :  3.000       A
 Population analysis output                     : summary and pdos components

 ************************ Magnetic Resonance Parameters ************************
  
 Magnetic Resonance Property                    : Chemical Shielding + EFG
 Position Operator Method                       : crystal
 max. number of MagRes CG steps                 :        250
 convergence tolerance window                   :          2   cycles
 energy convergence tolerance                   : 0.1000E-11   eV
 band convergence tolerance                     : 0.1000E-08   eV

 *******************************************************************************
  
 
                           -------------------------------
                                      Unit Cell
                           -------------------------------
        Real Lattice(A)                      Reciprocal Lattice(1/A)
     7.1585490     4.1329960    13.0126620        0.438858935   0.253374959   0.160950498
    -7.1585410     4.1329870    13.0126610       -0.438859276   0.253375526   0.160950588
    -0.0000040    -8.2659800    13.0126600        0.000000307  -0.506750544   0.160950601
 
                       Lattice parameters(A)       Cell Angles
                    a =     15.416091          alpha =   55.337041
                    b =     15.416084          beta  =   55.337094
                    c =     15.416087          gamma =   55.337039
 
                       Current cell volume =          2309.971027       A**3
                                   density =             2.386545   AMU/A**3
                                           =             3.962951     g/cm^3
 
                           -------------------------------
                                     Cell Contents
                           -------------------------------
                         Total number of ions in cell =  271
                      Total number of species in cell =    3
                        Max number of any one species =  162
 
            xxxxxxxxxxxxxxxxxxxxxxxxxxxxxxxxxxxxxxxxxxxxxxxxxxxxxxxxxxxx
            x  Element    Atom        Fractional coordinates of atoms  x
            x            Number           u          v          w      x
            x----------------------------------------------------------x
            x  Li           1         0.166679   0.166649   0.166671   x 
            x  O            1         0.187106   0.310375   0.086735   x 
            x  O            2         0.310377   0.086734   0.187107   x 
            x  O            3         0.086735   0.187105   0.310375   x 
            x  O            4         0.022959   0.246597   0.146228   x 
            x  O            5         0.246599   0.146227   0.022958   x 
            x  O            6         0.146227   0.022956   0.246599   x 
            x  O            7         0.185326   0.315546   0.417885   x 
            x  O            8         0.315186   0.083194   0.519021   x 
            x  O            9         0.083474   0.185251   0.647701   x 
            x  O           10         0.019149   0.250269   0.480442   x 
            x  O           11         0.250069   0.149414   0.354557   x 
            x  O           12         0.148073   0.018363   0.583211   x 
            x  O           13         0.185260   0.314971   0.750122   x 
            x  O           14         0.314184   0.083065   0.852892   x 
            x  O           15         0.083265   0.183920   0.978776   x 
            x  O           16         0.018147   0.250140   0.814313   x 
            x  O           17         0.249859   0.148082   0.685632   x 
            x  O           18         0.148007   0.017787   0.915449   x 
            x  O           19         0.185251   0.647701   0.083474   x 
            x  O           20         0.315546   0.417885   0.185326   x 
            x  O           21         0.083194   0.519021   0.315186   x 
            x  O           22         0.018363   0.583211   0.148073   x 
            x  O           23         0.250268   0.480442   0.019149   x 
            x  O           24         0.149414   0.354557   0.250069   x 
            x  O           25         0.185312   0.648594   0.416424   x 
            x  O           26         0.314781   0.416865   0.518708   x 
            x  O           27         0.083259   0.518777   0.648193   x 
            x  O           28         0.018545   0.583508   0.481666   x 
            x  O           29         0.250096   0.481704   0.352163   x 
            x  O           30         0.148157   0.351999   0.583818   x 
            x  O           31         0.185219   0.648056   0.750005   x 
            x  O           32         0.314589   0.416859   0.852008   x 
            x  O           33         0.084058   0.517145   0.981889   x 
            x  O           34         0.018704   0.583083   0.815106   x 
            x  O           35         0.250038   0.481208   0.685549   x 
            x  O           36         0.148318   0.351133   0.917516   x 
            x  O           37         0.183919   0.978777   0.083265   x 
            x  O           38         0.314970   0.750123   0.185260   x 
            x  O           39         0.083065   0.852891   0.314184   x 
            x  O           40         0.017788   0.915448   0.148007   x 
            x  O           41         0.250140   0.814313   0.018147   x 
            x  O           42         0.148082   0.685632   0.249859   x 
            x  O           43         0.185015   0.982200   0.415817   x 
            x  O           44         0.314629   0.750250   0.518227   x 
            x  O           45         0.083295   0.852126   0.647784   x 
            x  O           46         0.018743   0.916475   0.481325   x 
            x  O           47         0.249275   0.816188   0.351444   x 
            x  O           48         0.148114   0.685277   0.583329   x 
            x  O           49         0.185176   0.981335   0.749516   x 
            x  O           50         0.314789   0.749826   0.851667   x 
            x  O           51         0.083237   0.851630   0.981170   x 
            x  O           52         0.018552   0.916468   0.814625   x 
            x  O           53         0.250074   0.814557   0.685141   x 
            x  O           54         0.148021   0.684740   0.916909   x 
            x  O           55         0.519020   0.315187   0.083194   x 
            x  O           56         0.647701   0.083474   0.185251   x 
            x  O           57         0.417885   0.185327   0.315546   x 
            x  O           58         0.354557   0.250069   0.149414   x 
            x  O           59         0.583211   0.148073   0.018363   x 
            x  O           60         0.480442   0.019149   0.250268   x 
            x  O           61         0.518708   0.314782   0.416865   x 
            x  O           62         0.648193   0.083259   0.518777   x 
            x  O           63         0.416424   0.185313   0.648594   x 
            x  O           64         0.352164   0.250097   0.481704   x 
            x  O           65         0.583818   0.148157   0.351999   x 
            x  O           66         0.481666   0.018545   0.583508   x 
            x  O           67         0.518227   0.314629   0.750250   x 
            x  O           68         0.647784   0.083295   0.852126   x 
            x  O           69         0.415817   0.185015   0.982200   x 
            x  O           70         0.351444   0.249275   0.816188   x 
            x  O           71         0.583329   0.148114   0.685277   x 
            x  O           72         0.481325   0.018743   0.916474   x 
            x  O           73         0.518777   0.648193   0.083259   x 
            x  O           74         0.648594   0.416425   0.185312   x 
            x  O           75         0.416865   0.518708   0.314781   x 
            x  O           76         0.351999   0.583818   0.148157   x 
            x  O           77         0.583508   0.481667   0.018545   x 
            x  O           78         0.481704   0.352164   0.250096   x 
            x  O           79         0.518571   0.648121   0.416608   x 
            x  O           80         0.648121   0.416608   0.518571   x 
            x  O           81         0.416608   0.518571   0.648121   x 
            x  O           82         0.351829   0.583474   0.481415   x 
            x  O           83         0.583474   0.481415   0.351829   x 
            x  O           84         0.481415   0.351829   0.583474   x 
            x  O           85         0.518612   0.648020   0.749944   x 
            x  O           86         0.647950   0.416790   0.851868   x 
            x  O           87         0.416653   0.518894   0.981381   x 
            x  O           88         0.351895   0.583126   0.814929   x 
            x  O           89         0.583344   0.481332   0.685180   x 
            x  O           90         0.481183   0.351790   0.916908   x 
            x  O           91         0.517145   0.981889   0.084058   x 
            x  O           92         0.648056   0.750004   0.185219   x 
            x  O           93         0.416859   0.852008   0.314590   x 
            x  O           94         0.351133   0.917517   0.148318   x 
            x  O           95         0.583083   0.815106   0.018704   x 
            x  O           96         0.481207   0.685549   0.250038   x 
            x  O           97         0.518893   0.981381   0.416653   x 
            x  O           98         0.648020   0.749944   0.518612   x 
            x  O           99         0.416790   0.851868   0.647950   x 
            x  O          100         0.351789   0.916908   0.481183   x 
            x  O          101         0.583126   0.814929   0.351895   x 
            x  O          102         0.481332   0.685180   0.583344   x 
            x  O          103         0.518404   0.981438   0.750207   x 
            x  O          104         0.648153   0.749990   0.852001   x 
            x  O          105         0.416425   0.852151   0.981544   x 
            x  O          106         0.351953   0.916681   0.814440   x 
            x  O          107         0.583389   0.814721   0.685314   x 
            x  O          108         0.481466   0.685384   0.916543   x 
            x  O          109         0.852892   0.314184   0.083065   x 
            x  O          110         0.978776   0.083265   0.183919   x 
            x  O          111         0.750122   0.185260   0.314970   x 
            x  O          112         0.685632   0.249859   0.148082   x 
            x  O          113         0.915449   0.148007   0.017787   x 
            x  O          114         0.814313   0.018147   0.250140   x 
            x  O          115         0.852009   0.314590   0.416858   x 
            x  O          116         0.981889   0.084058   0.517145   x 
            x  O          117         0.750005   0.185219   0.648056   x 
            x  O          118         0.685549   0.250038   0.481207   x 
            x  O          119         0.917516   0.148318   0.351133   x 
            x  O          120         0.815106   0.018704   0.583083   x 
            x  O          121         0.851667   0.314789   0.749825   x 
            x  O          122         0.981170   0.083237   0.851630   x 
            x  O          123         0.749515   0.185176   0.981335   x 
            x  O          124         0.685140   0.250074   0.814556   x 
            x  O          125         0.916909   0.148021   0.684739   x 
            x  O          126         0.814625   0.018552   0.916468   x 
            x  O          127         0.852126   0.647784   0.083295   x 
            x  O          128         0.982200   0.415817   0.185015   x 
            x  O          129         0.750250   0.518227   0.314628   x 
            x  O          130         0.685277   0.583329   0.148114   x 
            x  O          131         0.916475   0.481325   0.018743   x 
            x  O          132         0.816188   0.351445   0.249275   x 
            x  O          133         0.851868   0.647950   0.416790   x 
            x  O          134         0.981381   0.416653   0.518893   x 
            x  O          135         0.749944   0.518613   0.648020   x 
            x  O          136         0.685180   0.583344   0.481332   x 
            x  O          137         0.916908   0.481183   0.351789   x 
            x  O          138         0.814929   0.351896   0.583126   x 
            x  O          139         0.852001   0.648153   0.749990   x 
            x  O          140         0.981544   0.416425   0.852150   x 
            x  O          141         0.750207   0.518405   0.981438   x 
            x  O          142         0.685314   0.583390   0.814721   x 
            x  O          143         0.916543   0.481466   0.685383   x 
            x  O          144         0.814440   0.351953   0.916680   x 
            x  O          145         0.851630   0.981170   0.083237   x 
            x  O          146         0.981335   0.749516   0.185176   x 
            x  O          147         0.749826   0.851667   0.314789   x 
            x  O          148         0.684739   0.916909   0.148021   x 
            x  O          149         0.916468   0.814625   0.018552   x 
            x  O          150         0.814557   0.685140   0.250074   x 
            x  O          151         0.852150   0.981544   0.416425   x 
            x  O          152         0.981438   0.750207   0.518404   x 
            x  O          153         0.749990   0.852001   0.648153   x 
            x  O          154         0.685383   0.916544   0.481466   x 
            x  O          155         0.916681   0.814440   0.351953   x 
            x  O          156         0.814721   0.685314   0.583389   x 
            x  O          157         0.851918   0.981504   0.749859   x 
            x  O          158         0.981504   0.749859   0.851918   x 
            x  O          159         0.749859   0.851918   0.981504   x 
            x  O          160         0.685212   0.916725   0.814762   x 
            x  O          161         0.916725   0.814762   0.685212   x 
            x  O          162         0.814762   0.685212   0.916725   x 
            x  Al           1         0.046449   0.046449   0.046449   x 
            x  Al           2         0.221738   0.221740   0.221739   x 
            x  Al           3         0.286885   0.286885   0.286885   x 
            x  Al           4         0.111593   0.111595   0.111594   x 
            x  Al           5         0.048507   0.048111   0.384006   x 
            x  Al           6         0.216286   0.215669   0.550221   x 
            x  Al           7         0.284051   0.284386   0.617411   x 
            x  Al           8         0.117299   0.117009   0.451646   x 
            x  Al           9         0.049282   0.048947   0.715922   x 
            x  Al          10         0.216034   0.216324   0.881687   x 
            x  Al          11         0.284825   0.285222   0.949327   x 
            x  Al          12         0.117047   0.117665   0.783113   x 
            x  Al          13         0.048111   0.384005   0.048509   x 
            x  Al          14         0.215668   0.550221   0.216286   x 
            x  Al          15         0.284386   0.617412   0.284051   x 
            x  Al          16         0.117009   0.451646   0.117299   x 
            x  Al          17         0.048826   0.383647   0.383682   x 
            x  Al          18         0.215924   0.549391   0.549345   x 
            x  Al          19         0.284029   0.617399   0.617409   x 
            x  Al          20         0.117384   0.451231   0.451434   x 
            x  Al          21         0.049042   0.382849   0.715957   x 
            x  Al          22         0.216245   0.549605   0.882328   x 
            x  Al          23         0.284052   0.617481   0.950647   x 
            x  Al          24         0.117319   0.450917   0.783859   x 
            x  Al          25         0.048947   0.715922   0.049283   x 
            x  Al          26         0.216324   0.881687   0.216034   x 
            x  Al          27         0.285223   0.949326   0.284826   x 
            x  Al          28         0.117665   0.783113   0.117047   x 
            x  Al          29         0.049281   0.715853   0.382687   x 
            x  Al          30         0.216014   0.882417   0.549474   x 
            x  Al          31         0.284291   0.950484   0.617377   x 
            x  Al          32         0.117088   0.783728   0.451006   x 
            x  Al          33         0.049304   0.715935   0.715924   x 
            x  Al          34         0.215949   0.882103   0.881899   x 
            x  Al          35         0.284507   0.949687   0.949652   x 
            x  Al          36         0.117409   0.783943   0.783988   x 
            x  Al          37         0.384007   0.048507   0.048110   x 
            x  Al          38         0.550221   0.216286   0.215668   x 
            x  Al          39         0.617411   0.284051   0.284386   x 
            x  Al          40         0.451646   0.117300   0.117009   x 
            x  Al          41         0.383682   0.048826   0.383646   x 
            x  Al          42         0.549345   0.215924   0.549390   x 
            x  Al          43         0.617409   0.284029   0.617398   x 
            x  Al          44         0.451434   0.117384   0.451231   x 
            x  Al          45         0.382687   0.049281   0.715852   x 
            x  Al          46         0.549474   0.216014   0.882416   x 
            x  Al          47         0.617376   0.284292   0.950484   x 
            x  Al          48         0.451006   0.117088   0.783728   x 
            x  Al          49         0.383646   0.383682   0.048826   x 
            x  Al          50         0.549390   0.549345   0.215924   x 
            x  Al          51         0.617398   0.617409   0.284029   x 
            x  Al          52         0.451231   0.451435   0.117384   x 
            x  Al          53         0.382869   0.382869   0.382869   x 
            x  Al          54         0.549291   0.549291   0.549291   x 
            x  Al          55         0.617371   0.617371   0.617371   x 
            x  Al          56         0.450782   0.450782   0.450782   x 
            x  Al          57         0.382831   0.382756   0.715644   x 
            x  Al          58         0.549456   0.549492   0.882381   x 
            x  Al          59         0.617518   0.617445   0.950564   x 
            x  Al          60         0.450941   0.450800   0.783885   x 
            x  Al          61         0.382849   0.715957   0.049042   x 
            x  Al          62         0.549605   0.882327   0.216245   x 
            x  Al          63         0.617481   0.950646   0.284052   x 
            x  Al          64         0.450916   0.783860   0.117319   x 
            x  Al          65         0.382756   0.715644   0.382830   x 
            x  Al          66         0.549492   0.882381   0.549456   x 
            x  Al          67         0.617445   0.950564   0.617518   x 
            x  Al          68         0.450799   0.783886   0.450941   x 
            x  Al          69         0.382769   0.715816   0.715889   x 
            x  Al          70         0.549448   0.882393   0.882534   x 
            x  Al          71         0.617690   0.950503   0.950577   x 
            x  Al          72         0.450953   0.783878   0.783841   x 
            x  Al          73         0.715922   0.049282   0.048947   x 
            x  Al          74         0.881687   0.216034   0.216324   x 
            x  Al          75         0.949328   0.284825   0.285222   x 
            x  Al          76         0.783113   0.117047   0.117665   x 
            x  Al          77         0.715957   0.049042   0.382849   x 
            x  Al          78         0.882327   0.216245   0.549605   x 
            x  Al          79         0.950646   0.284053   0.617481   x 
            x  Al          80         0.783860   0.117319   0.450917   x 
            x  Al          81         0.715924   0.049304   0.715935   x 
            x  Al          82         0.881899   0.215950   0.882103   x 
            x  Al          83         0.949651   0.284508   0.949687   x 
            x  Al          84         0.783988   0.117409   0.783943   x 
            x  Al          85         0.715852   0.382687   0.049281   x 
            x  Al          86         0.882417   0.549474   0.216014   x 
            x  Al          87         0.950484   0.617377   0.284292   x 
            x  Al          88         0.783728   0.451006   0.117088   x 
            x  Al          89         0.715644   0.382831   0.382756   x 
            x  Al          90         0.882381   0.549456   0.549492   x 
            x  Al          91         0.950564   0.617518   0.617445   x 
            x  Al          92         0.783886   0.450941   0.450799   x 
            x  Al          93         0.715889   0.382769   0.715815   x 
            x  Al          94         0.882534   0.549448   0.882393   x 
            x  Al          95         0.950577   0.617689   0.950503   x 
            x  Al          96         0.783841   0.450953   0.783877   x 
            x  Al          97         0.715935   0.715924   0.049304   x 
            x  Al          98         0.882103   0.881899   0.215950   x 
            x  Al          99         0.949687   0.949651   0.284508   x 
            x  Al         100         0.783943   0.783988   0.117409   x 
            x  Al         101         0.715816   0.715888   0.382769   x 
            x  Al         102         0.882393   0.882534   0.549448   x 
            x  Al         103         0.950503   0.950577   0.617689   x 
            x  Al         104         0.783878   0.783841   0.450952   x 
            x  Al         105         0.715963   0.715963   0.715963   x 
            x  Al         106         0.882551   0.882551   0.882551   x 
            x  Al         107         0.950465   0.950465   0.950465   x 
            x  Al         108         0.784042   0.784042   0.784042   x 
            xxxxxxxxxxxxxxxxxxxxxxxxxxxxxxxxxxxxxxxxxxxxxxxxxxxxxxxxxxxx
 
 
                         No user defined ionic velocities
 
                           -------------------------------
                                   Details of Species
                           -------------------------------
 
                               Mass of species in AMU
                                    Li    6.9410000
                                    O   15.9994000
                                    Al   26.9815400
 
                          Electric Quadrupole Moment (Barn)
                                    Li   -0.0401000 Isotope  7
                                    O   -0.0255800 Isotope 17
                                    Al    0.1466000 Isotope 27
 
                          Files used for pseudopotentials:
                                    Li 1|1.0|14|16|18|10U:20(qc=7)
                                    O 2|1.1|17|20|23|20:21(qc=8)
                                    Al 3|2.2|2.2|1.4|4|5|5|30:31:32U2U2
 
                           -------------------------------
                              k-Points For BZ Sampling
                           -------------------------------
                       MP grid size for SCF calculation is  1  1  1
                            with an offset of   0.000  0.000  0.000
                       Number of kpoints used =             1
 
             +++++++++++++++++++++++++++++++++++++++++++++++++++++++
             +  Number       Fractional coordinates        Weight  +
             +-----------------------------------------------------+
             +     1   0.000000   0.000000   0.000000   1.0000000  +
             +++++++++++++++++++++++++++++++++++++++++++++++++++++++
 
                           -------------------------------
                               Symmetry and Constraints
                           -------------------------------
 
                      Maximum deviation from symmetry =  0.00000         ANG
 
                      Number of symmetry operations   =           1
                      Number of ionic constraints     =           3
                      Point group of crystal =     1: C1, 1, 1
                      Space group of crystal =   148: R-3, -R 3
 
                    1 rotation    
                 (   1.00000000000   0.00000000000   0.00000000000 )
                 (   0.00000000000   1.00000000000   0.00000000000 )
                 (   0.00000000000   0.00000000000   1.00000000000 )
                    1 displacement
                 (   0.00000000000   0.00000000000   0.00000000000 )
                      symmetry related atoms: 
             Li:    1
             O:    1    2    3    4    5    6    7    8    9   10   11   12   13   14   15   16   17   18   19   20   21   22   23   24   25   26   27   28   29   30   31   32   33   34   35   36   37   38   39   40   41   42   43   44   45   46   47   48   49   50   51   52   53   54   55   56   57   58   59   60   61   62   63   64   65   66   67   68   69   70   71   72   73   74   75   76   77   78   79   80   81   82   83   84   85   86   87   88   89   90   91   92   93   94   95   96   97   98   99  100  101  102  103  104  105  106  107  108  109  110  111  112  113  114  115  116  117  118  119  120  121  122  123  124  125  126  127  128  129  130  131  132  133  134  135  136  137  138  139  140  141  142  143  144  145  146  147  148  149  150  151  152  153  154  155  156  157  158  159  160  161  162
             Al:    1    2    3    4    5    6    7    8    9   10   11   12   13   14   15   16   17   18   19   20   21   22   23   24   25   26   27   28   29   30   31   32   33   34   35   36   37   38   39   40   41   42   43   44   45   46   47   48   49   50   51   52   53   54   55   56   57   58   59   60   61   62   63   64   65   66   67   68   69   70   71   72   73   74   75   76   77   78   79   80   81   82   83   84   85   86   87   88   89   90   91   92   93   94   95   96   97   98   99  100  101  102  103  104  105  106  107  108
 
 
                         Centre of mass is constrained
 
            xxxxxxxxxxxxxxxxxxxxxxxxxxxxxxxxxxxxxxxxxxxxxxxxxxxxxxxxxxxxxx....
            x  Species       atom   co-ordinate  constraints.....         
            x-------------------------------------------------------------....
            x Li                1       x        12652.6690      0.0000      0.0000
            x Li                1       y            0.0000  12652.6690      0.0000
            x Li                1       z            0.0000      0.0000  12652.6690
            x O                 1       x        29165.1220      0.0000      0.0000
            x O                 1       y            0.0000  29165.1220      0.0000
            x O                 1       z            0.0000      0.0000  29165.1220
            x O                 2       x        29165.1220      0.0000      0.0000
            x O                 2       y            0.0000  29165.1220      0.0000
            x O                 2       z            0.0000      0.0000  29165.1220
            x O                 3       x        29165.1220      0.0000      0.0000
            x O                 3       y            0.0000  29165.1220      0.0000
            x O                 3       z            0.0000      0.0000  29165.1220
            x O                 4       x        29165.1220      0.0000      0.0000
            x O                 4       y            0.0000  29165.1220      0.0000
            x O                 4       z            0.0000      0.0000  29165.1220
            x O                 5       x        29165.1220      0.0000      0.0000
            x O                 5       y            0.0000  29165.1220      0.0000
            x O                 5       z            0.0000      0.0000  29165.1220
            x O                 6       x        29165.1220      0.0000      0.0000
            x O                 6       y            0.0000  29165.1220      0.0000
            x O                 6       z            0.0000      0.0000  29165.1220
            x O                 7       x        29165.1220      0.0000      0.0000
            x O                 7       y            0.0000  29165.1220      0.0000
            x O                 7       z            0.0000      0.0000  29165.1220
            x O                 8       x        29165.1220      0.0000      0.0000
            x O                 8       y            0.0000  29165.1220      0.0000
            x O                 8       z            0.0000      0.0000  29165.1220
            x O                 9       x        29165.1220      0.0000      0.0000
            x O                 9       y            0.0000  29165.1220      0.0000
            x O                 9       z            0.0000      0.0000  29165.1220
            x O                10       x        29165.1220      0.0000      0.0000
            x O                10       y            0.0000  29165.1220      0.0000
            x O                10       z            0.0000      0.0000  29165.1220
            x O                11       x        29165.1220      0.0000      0.0000
            x O                11       y            0.0000  29165.1220      0.0000
            x O                11       z            0.0000      0.0000  29165.1220
            x O                12       x        29165.1220      0.0000      0.0000
            x O                12       y            0.0000  29165.1220      0.0000
            x O                12       z            0.0000      0.0000  29165.1220
            x O                13       x        29165.1220      0.0000      0.0000
            x O                13       y            0.0000  29165.1220      0.0000
            x O                13       z            0.0000      0.0000  29165.1220
            x O                14       x        29165.1220      0.0000      0.0000
            x O                14       y            0.0000  29165.1220      0.0000
            x O                14       z            0.0000      0.0000  29165.1220
            x O                15       x        29165.1220      0.0000      0.0000
            x O                15       y            0.0000  29165.1220      0.0000
            x O                15       z            0.0000      0.0000  29165.1220
            x O                16       x        29165.1220      0.0000      0.0000
            x O                16       y            0.0000  29165.1220      0.0000
            x O                16       z            0.0000      0.0000  29165.1220
            x O                17       x        29165.1220      0.0000      0.0000
            x O                17       y            0.0000  29165.1220      0.0000
            x O                17       z            0.0000      0.0000  29165.1220
            x O                18       x        29165.1220      0.0000      0.0000
            x O                18       y            0.0000  29165.1220      0.0000
            x O                18       z            0.0000      0.0000  29165.1220
            x O                19       x        29165.1220      0.0000      0.0000
            x O                19       y            0.0000  29165.1220      0.0000
            x O                19       z            0.0000      0.0000  29165.1220
            x O                20       x        29165.1220      0.0000      0.0000
            x O                20       y            0.0000  29165.1220      0.0000
            x O                20       z            0.0000      0.0000  29165.1220
            x O                21       x        29165.1220      0.0000      0.0000
            x O                21       y            0.0000  29165.1220      0.0000
            x O                21       z            0.0000      0.0000  29165.1220
            x O                22       x        29165.1220      0.0000      0.0000
            x O                22       y            0.0000  29165.1220      0.0000
            x O                22       z            0.0000      0.0000  29165.1220
            x O                23       x        29165.1220      0.0000      0.0000
            x O                23       y            0.0000  29165.1220      0.0000
            x O                23       z            0.0000      0.0000  29165.1220
            x O                24       x        29165.1220      0.0000      0.0000
            x O                24       y            0.0000  29165.1220      0.0000
            x O                24       z            0.0000      0.0000  29165.1220
            x O                25       x        29165.1220      0.0000      0.0000
            x O                25       y            0.0000  29165.1220      0.0000
            x O                25       z            0.0000      0.0000  29165.1220
            x O                26       x        29165.1220      0.0000      0.0000
            x O                26       y            0.0000  29165.1220      0.0000
            x O                26       z            0.0000      0.0000  29165.1220
            x O                27       x        29165.1220      0.0000      0.0000
            x O                27       y            0.0000  29165.1220      0.0000
            x O                27       z            0.0000      0.0000  29165.1220
            x O                28       x        29165.1220      0.0000      0.0000
            x O                28       y            0.0000  29165.1220      0.0000
            x O                28       z            0.0000      0.0000  29165.1220
            x O                29       x        29165.1220      0.0000      0.0000
            x O                29       y            0.0000  29165.1220      0.0000
            x O                29       z            0.0000      0.0000  29165.1220
            x O                30       x        29165.1220      0.0000      0.0000
            x O                30       y            0.0000  29165.1220      0.0000
            x O                30       z            0.0000      0.0000  29165.1220
            x O                31       x        29165.1220      0.0000      0.0000
            x O                31       y            0.0000  29165.1220      0.0000
            x O                31       z            0.0000      0.0000  29165.1220
            x O                32       x        29165.1220      0.0000      0.0000
            x O                32       y            0.0000  29165.1220      0.0000
            x O                32       z            0.0000      0.0000  29165.1220
            x O                33       x        29165.1220      0.0000      0.0000
            x O                33       y            0.0000  29165.1220      0.0000
            x O                33       z            0.0000      0.0000  29165.1220
            x O                34       x        29165.1220      0.0000      0.0000
            x O                34       y            0.0000  29165.1220      0.0000
            x O                34       z            0.0000      0.0000  29165.1220
            x O                35       x        29165.1220      0.0000      0.0000
            x O                35       y            0.0000  29165.1220      0.0000
            x O                35       z            0.0000      0.0000  29165.1220
            x O                36       x        29165.1220      0.0000      0.0000
            x O                36       y            0.0000  29165.1220      0.0000
            x O                36       z            0.0000      0.0000  29165.1220
            x O                37       x        29165.1220      0.0000      0.0000
            x O                37       y            0.0000  29165.1220      0.0000
            x O                37       z            0.0000      0.0000  29165.1220
            x O                38       x        29165.1220      0.0000      0.0000
            x O                38       y            0.0000  29165.1220      0.0000
            x O                38       z            0.0000      0.0000  29165.1220
            x O                39       x        29165.1220      0.0000      0.0000
            x O                39       y            0.0000  29165.1220      0.0000
            x O                39       z            0.0000      0.0000  29165.1220
            x O                40       x        29165.1220      0.0000      0.0000
            x O                40       y            0.0000  29165.1220      0.0000
            x O                40       z            0.0000      0.0000  29165.1220
            x O                41       x        29165.1220      0.0000      0.0000
            x O                41       y            0.0000  29165.1220      0.0000
            x O                41       z            0.0000      0.0000  29165.1220
            x O                42       x        29165.1220      0.0000      0.0000
            x O                42       y            0.0000  29165.1220      0.0000
            x O                42       z            0.0000      0.0000  29165.1220
            x O                43       x        29165.1220      0.0000      0.0000
            x O                43       y            0.0000  29165.1220      0.0000
            x O                43       z            0.0000      0.0000  29165.1220
            x O                44       x        29165.1220      0.0000      0.0000
            x O                44       y            0.0000  29165.1220      0.0000
            x O                44       z            0.0000      0.0000  29165.1220
            x O                45       x        29165.1220      0.0000      0.0000
            x O                45       y            0.0000  29165.1220      0.0000
            x O                45       z            0.0000      0.0000  29165.1220
            x O                46       x        29165.1220      0.0000      0.0000
            x O                46       y            0.0000  29165.1220      0.0000
            x O                46       z            0.0000      0.0000  29165.1220
            x O                47       x        29165.1220      0.0000      0.0000
            x O                47       y            0.0000  29165.1220      0.0000
            x O                47       z            0.0000      0.0000  29165.1220
            x O                48       x        29165.1220      0.0000      0.0000
            x O                48       y            0.0000  29165.1220      0.0000
            x O                48       z            0.0000      0.0000  29165.1220
            x O                49       x        29165.1220      0.0000      0.0000
            x O                49       y            0.0000  29165.1220      0.0000
            x O                49       z            0.0000      0.0000  29165.1220
            x O                50       x        29165.1220      0.0000      0.0000
            x O                50       y            0.0000  29165.1220      0.0000
            x O                50       z            0.0000      0.0000  29165.1220
            x O                51       x        29165.1220      0.0000      0.0000
            x O                51       y            0.0000  29165.1220      0.0000
            x O                51       z            0.0000      0.0000  29165.1220
            x O                52       x        29165.1220      0.0000      0.0000
            x O                52       y            0.0000  29165.1220      0.0000
            x O                52       z            0.0000      0.0000  29165.1220
            x O                53       x        29165.1220      0.0000      0.0000
            x O                53       y            0.0000  29165.1220      0.0000
            x O                53       z            0.0000      0.0000  29165.1220
            x O                54       x        29165.1220      0.0000      0.0000
            x O                54       y            0.0000  29165.1220      0.0000
            x O                54       z            0.0000      0.0000  29165.1220
            x O                55       x        29165.1220      0.0000      0.0000
            x O                55       y            0.0000  29165.1220      0.0000
            x O                55       z            0.0000      0.0000  29165.1220
            x O                56       x        29165.1220      0.0000      0.0000
            x O                56       y            0.0000  29165.1220      0.0000
            x O                56       z            0.0000      0.0000  29165.1220
            x O                57       x        29165.1220      0.0000      0.0000
            x O                57       y            0.0000  29165.1220      0.0000
            x O                57       z            0.0000      0.0000  29165.1220
            x O                58       x        29165.1220      0.0000      0.0000
            x O                58       y            0.0000  29165.1220      0.0000
[...]
             O 19  -- O 20                   0.03        2.86651
             O 112 -- O 113                 -0.01        2.86652
             O 17  -- O 18                   0.02        2.86652
             O 7   -- O 9                    0.01        2.86652
             O 56  -- O 57                  -0.00        2.86652
             O 10  -- O 137                  0.02        2.86925
             O 14  -- O 105                  0.01        2.86925
             O 39  -- O 151                  0.01        2.86925
             O 23  -- O 90                   0.01        2.86925
             O 109 -- O 140                  0.01        2.86925
             O 60  -- O 100                  0.01        2.86925
             O 21  -- O 146                  0.01        2.87071
             O 41  -- O 76                   0.01        2.87071
             O 8   -- O 49                   0.00        2.87072
             O 16  -- O 30                   0.01        2.87072
             O 55  -- O 123                  0.01        2.87072
             O 65  -- O 114                  0.00        2.87072
             O 21  -- O 133                  0.01        2.87161
             O 8   -- O 99                   0.01        2.87161
             O 16  -- O 143                  0.01        2.87162
             O 41  -- O 108                  0.01        2.87162
             O 55  -- O 86                   0.01        2.87162
             O 114 -- O 154                  0.01        2.87162
             O 24  -- O 137                  0.01        2.87169
             O 15  -- O 140                  0.01        2.87169
             O 11  -- O 100                  0.01        2.87169
             O 110 -- O 151                  0.01        2.87169
             O 58  -- O 90                   0.01        2.87169
             O 37  -- O 105                  0.02        2.87170
             O 50  -- O 87                   0.02        2.87292
             O 28  -- O 155                  0.00        2.87292
             O 121 -- O 134                  0.01        2.87293
             O 97  -- O 147                 -0.00        2.87293
             O 66  -- O 106                  0.00        2.87293
             O 77  -- O 144                  0.01        2.87293
             O 74  -- O 111                  0.01        2.87335
             O 59  -- O 148                  0.01        2.87335
             O 22  -- O 54                   0.01        2.87336
             O 12  -- O 125                  0.01        2.87336
             O 25  -- O 38                   0.01        2.87336
             O 13  -- O 63                   0.00        2.87336
             O 19  -- O 87                   0.01        2.87345
             O 42  -- O 155                  0.02        2.87345
             O 9   -- O 134                  0.01        2.87345
             O 17  -- O 106                 -0.00        2.87345
             O 56  -- O 97                   0.00        2.87345
             O 112 -- O 144                  0.01        2.87345
             O 62  -- O 153                 -0.00        2.87379
             O 89  -- O 124                  0.01        2.87380
             O 27  -- O 139                  0.01        2.87380
             O 53  -- O 102                  0.01        2.87380
             O 136 -- O 150                  0.00        2.87380
             O 73  -- O 104                  0.01        2.87380
             O 154 -- O 156                  0.00        2.87385
             O 85  -- O 86                   0.02        2.87385
             O 107 -- O 108                  0.02        2.87385
             O 133 -- O 135                  0.01        2.87385
             O 142 -- O 143                  0.01        2.87385
             O 98  -- O 99                   0.01        2.87385
             O 31  -- O 32                   0.01        2.87402
             O 46  -- O 48                   0.01        2.87403
             O 71  -- O 72                   0.01        2.87403
             O 92  -- O 93                   0.01        2.87403
             O 115 -- O 117                  0.01        2.87403
             O 130 -- O 131                  0.02        2.87403
             O 88  -- O 90                   0.02        2.87470
             O 151 -- O 152                  0.01        2.87470
             O 137 -- O 138                  0.01        2.87470
             O 103 -- O 105                  0.02        2.87470
             O 140 -- O 141                  0.01        2.87470
             O 100 -- O 101                  0.01        2.87470
             O 142 -- O 144                  0.01        2.87471
             O 97  -- O 98                   0.01        2.87472
             O 155 -- O 156                  0.01        2.87472
             O 85  -- O 87                   0.01        2.87472
             O 134 -- O 135                  0.01        2.87472
             O 106 -- O 107                  0.01        2.87472
             O 98  -- O 135                  0.00        2.87501
             O 107 -- O 142                  0.00        2.87501
             O 85  -- O 135                  0.00        2.87501
             O 107 -- O 156                  0.01        2.87501
             O 85  -- O 98                   0.01        2.87501
             O 142 -- O 156                  0.01        2.87501
             O 112 -- O 114                  0.01        2.87532
             O 41  -- O 42                   0.01        2.87532
             O 16  -- O 17                   0.01        2.87532
             O 8   -- O 9                    0.01        2.87532
             O 19  -- O 21                   0.01        2.87532
             O 55  -- O 56                   0.02        2.87532
             O 127 -- O 129                  0.01        2.87554
             O 95  -- O 96                   0.00        2.87554
             O 44  -- O 45                   0.01        2.87554
             O 67  -- O 68                   0.00        2.87554
             O 118 -- O 120                  0.01        2.87555
             O 34  -- O 35                   0.01        2.87555
             O 71  -- O 160                 -0.00        2.87570
             O 48  -- O 161                  0.01        2.87570
             O 80  -- O 117                  0.01        2.87570
             O 130 -- O 162                  0.01        2.87570
             O 31  -- O 81                   0.00        2.87570
             O 79  -- O 92                   0.01        2.87570
             O 83  -- O 118                  0.01        2.87580
             O 68  -- O 159                  0.01        2.87580
             O 127 -- O 158                  0.00        2.87580
             O 45  -- O 157                  0.01        2.87580
             O 82  -- O 96                  -0.00        2.87580
             O 35  -- O 84                   0.01        2.87580
             O 106 -- O 108                  0.01        2.87587
             O 133 -- O 134                 -0.00        2.87587
             O 154 -- O 155                  0.01        2.87587
             O 97  -- O 99                  -0.00        2.87587
             O 143 -- O 144                  0.02        2.87587
             O 86  -- O 87                   0.01        2.87588
             O 22  -- O 149                  0.01        2.87611
             O 38  -- O 75                  -0.01        2.87611
             O 59  -- O 126                  0.01        2.87611
             O 61  -- O 111                  0.00        2.87611
             O 12  -- O 52                   0.00        2.87611
             O 13  -- O 26                   0.02        2.87611
             O 86  -- O 123                  0.01        2.87632
             O 65  -- O 154                  0.00        2.87632
             O 133 -- O 146                  0.01        2.87632
             O 49  -- O 99                   0.01        2.87632
             O 76  -- O 108                  0.01        2.87632
             O 30  -- O 143                 -0.00        2.87632
             O 77  -- O 78                   0.00        2.87683
             O 64  -- O 66                   0.01        2.87683
             O 121 -- O 122                  0.01        2.87683
             O 145 -- O 147                  0.01        2.87683
             O 28  -- O 29                   0.02        2.87683
             O 50  -- O 51                  -0.00        2.87683
             O 124 -- O 126                  0.02        2.87690
             O 73  -- O 75                   0.01        2.87690
             O 149 -- O 150                  0.01        2.87690
             O 61  -- O 62                   0.01        2.87690
             O 52  -- O 53                   0.00        2.87690
             O 26  -- O 27                   0.00        2.87690
             O 136 -- O 138                  0.00        2.87707
             O 103 -- O 104                  0.01        2.87708
             O 101 -- O 102                  0.00        2.87708
             O 139 -- O 141                  0.00        2.87708
             O 152 -- O 153                  0.00        2.87708
             O 88  -- O 89                   0.00        2.87708
             O 53  -- O 88                   0.01        2.87721
             O 27  -- O 152                  0.01        2.87721
             O 124 -- O 138                  0.01        2.87722
             O 62  -- O 103                  0.01        2.87722
             O 101 -- O 150                  0.01        2.87722
             O 73  -- O 141                  0.02        2.87722
             O 79  -- O 81                   0.01        2.87731
             O 79  -- O 80                   0.01        2.87731
             O 160 -- O 162                 -0.01        2.87731
             O 161 -- O 162                  0.02        2.87731
             O 160 -- O 161                  0.01        2.87731
             O 80  -- O 81                   0.01        2.87731
             O 104 -- O 141                  0.00        2.87771
             O 101 -- O 136                  0.01        2.87771
             O 89  -- O 138                  0.01        2.87771
             O 139 -- O 152                  0.00        2.87771
             O 88  -- O 102                  0.01        2.87771
             O 103 -- O 153                  0.01        2.87771
             O 26  -- O 63                   0.00        2.87802
             O 54  -- O 149                  0.01        2.87802
             O 52  -- O 125                  0.01        2.87802
             O 25  -- O 75                   0.00        2.87803
             O 61  -- O 74                   0.01        2.87803
             O 126 -- O 148                  0.01        2.87803
             O 76  -- O 77                   0.02        2.87825
             O 65  -- O 66                   0.01        2.87825
             O 146 -- O 147                  0.02        2.87825
             O 28  -- O 30                   0.01        2.87825
             O 49  -- O 50                   0.01        2.87825
             O 121 -- O 123                  0.01        2.87825
             O 51  -- O 145                  0.01        2.87842
             O 29  -- O 64                   0.01        2.87842
             O 51  -- O 122                  0.00        2.87842
             O 122 -- O 145                  0.01        2.87842
             O 29  -- O 78                  -0.00        2.87842
             O 64  -- O 78                   0.01        2.87842
             O 157 -- O 158                  0.01        2.87891
             O 82  -- O 84                   0.02        2.87891
             O 158 -- O 159                  0.01        2.87891
             O 83  -- O 84                   0.01        2.87891
             O 157 -- O 159                  0.01        2.87891
             O 82  -- O 83                   0.01        2.87891
             O 145 -- O 146                  0.00        2.87910
             O 76  -- O 78                   0.01        2.87910
             O 64  -- O 65                   0.00        2.87910
             O 122 -- O 123                  0.00        2.87910
             O 29  -- O 30                   0.00        2.87910
             O 49  -- O 51                  -0.00        2.87911
             O 95  -- O 130                  0.01        2.87968
             O 92  -- O 129                  0.01        2.87968
             O 71  -- O 120                  0.00        2.87969
             O 34  -- O 48                   0.01        2.87969
             O 67  -- O 117                  0.01        2.87969
             O 31  -- O 44                   0.00        2.87969
             O 139 -- O 140                  0.02        2.87976
             O 100 -- O 102                  0.01        2.87976
             O 151 -- O 153                  0.00        2.87976
             O 89  -- O 90                   0.01        2.87976
             O 136 -- O 137                  0.00        2.87977
             O 104 -- O 105                  0.01        2.87977
             O 52  -- O 54                   0.00        2.87988
             O 25  -- O 26                   0.00        2.87988
             O 148 -- O 149                  0.01        2.87988
             O 61  -- O 63                   0.01        2.87988
             O 74  -- O 75                   0.01        2.87988
             O 125 -- O 126                  0.02        2.87988
             O 10  -- O 24                   0.01        2.88019
             O 23  -- O 58                   0.01        2.88019
             O 15  -- O 109                  0.01        2.88019
             O 14  -- O 37                   0.01        2.88019
             O 39  -- O 110                  0.01        2.88019
             O 11  -- O 60                   0.00        2.88019
             O 19  -- O 50                   0.02        2.88026
             O 56  -- O 147                  0.01        2.88026
             O 28  -- O 42                   0.00        2.88026
             O 9   -- O 121                  0.01        2.88026
             O 77  -- O 112                  0.01        2.88026
             O 17  -- O 66                   0.00        2.88026
             O 34  -- O 161                  0.00        2.88033
             O 44  -- O 81                   0.00        2.88033
             O 120 -- O 160                  0.02        2.88033
             O 95  -- O 162                  0.01        2.88033
             O 67  -- O 80                   0.01        2.88033
             O 79  -- O 129                  0.01        2.88033
             O 36  -- O 131                  0.01        2.88034
             O 46  -- O 119                  0.01        2.88034
             O 115 -- O 128                  0.01        2.88034
             O 43  -- O 93                   0.00        2.88034
             O 32  -- O 69                   0.00        2.88034
             O 72  -- O 94                   0.01        2.88035
             O 22  -- O 23                   0.01        2.88060
             O 59  -- O 60                   0.02        2.88060
             O 13  -- O 14                  -0.00        2.88060
             O 38  -- O 39                   0.01        2.88060
             O 10  -- O 12                   0.01        2.88060
             O 109 -- O 111                  0.00        2.88060
             O 148 -- O 150                  0.01        2.88097
             O 73  -- O 74                   0.01        2.88097
             O 25  -- O 27                   0.01        2.88098
             O 53  -- O 54                   0.02        2.88098
             O 124 -- O 125                  0.01        2.88098
             O 62  -- O 63                   0.01        2.88098
             O 127 -- O 128                  0.02        2.88259
             O 94  -- O 96                   0.02        2.88259
             O 43  -- O 45                   0.01        2.88260
             O 118 -- O 119                  0.01        2.88260
             O 68  -- O 69                   0.02        2.88260
             O 35  -- O 36                   0.00        2.88260
             O 40  -- O 41                   0.02        2.88272
             O 20  -- O 21                   0.00        2.88272
             O 113 -- O 114                  0.01        2.88272
             O 55  -- O 57                   0.01        2.88272
             O 16  -- O 18                   0.01        2.88272
             O 7   -- O 8                    0.00        2.88272
             O 43  -- O 44                   0.01        2.88282
             O 34  -- O 36                   0.00        2.88283
             O 128 -- O 129                  0.01        2.88283
             O 119 -- O 120                  0.01        2.88283
             O 67  -- O 69                   0.00        2.88283
             O 94  -- O 95                   0.00        2.88283
             O 91  -- O 92                   0.02        2.88377
             O 130 -- O 132                  0.01        2.88377
             O 116 -- O 117                  0.02        2.88377
             O 31  -- O 33                   0.01        2.88378
             O 47  -- O 48                   0.01        2.88378
             O 70  -- O 71                   0.01        2.88378
             O 47  -- O 96                   0.01        2.88379
             O 35  -- O 70                   0.01        2.88379
             O 33  -- O 127                  0.01        2.88379
             O 45  -- O 116                  0.01        2.88379
             O 68  -- O 91                  -0.01        2.88379
             O 118 -- O 132                  0.01        2.88379
             O 7   -- O 20                   0.00        2.89038
             O 18  -- O 113                  0.01        2.89038
             O 20  -- O 57                  -0.01        2.89039
             O 40  -- O 113                  0.00        2.89039
             O 18  -- O 40                   0.01        2.89039
             O 7   -- O 57                   0.00        2.89039
             O 47  -- O 82                   0.01        2.89130
             O 33  -- O 158                  0.01        2.89130
             O 91  -- O 159                  0.02        2.89130
             O 116 -- O 157                  0.01        2.89130
             O 83  -- O 132                  0.00        2.89130
             O 70  -- O 84                  -0.00        2.89130
             O 2   -- O 93                   0.00        2.91111
             O 6   -- O 46                   0.01        2.91112
             O 5   -- O 72                   0.01        2.91113
             O 3   -- O 115                  0.01        2.91114
             O 1   -- O 32                   0.01        2.91114
             O 4   -- O 131                  0.01        2.91114
======================================================================
 

Writing analysis data to al2o3_xc-PBESOL_c-0700_k-1x1x1_sc-3x3x3_site-0_nmr.castep_bin

Writing model to al2o3_xc-PBESOL_c-0700_k-1x1x1_sc-3x3x3_site-0_nmr.check
 
 A BibTeX formatted list of references used in this run has been written to 
 al2o3_xc-PBESOL_c-0700_k-1x1x1_sc-3x3x3_site-0_nmr.bib
 
Initialisation time =     16.60 s
Calculation time    =     10.55 s
Finalisation time   =      2.37 s
Total time          =     29.52 s
Peak Memory Use     = 4848788 kB
  
Overall parallel efficiency rating: Poor (37%)                                  
  
Data was distributed by:-
G-vector (80-way); efficiency rating: Poor (37%)                                
  
Parallel notes:
1) Calculation only took 27.2 s, so efficiency estimates may be inaccurate.     
2) SMP optimisations were used (num_proc_in_smp=0).                             
