 +-------------------------------------------------+
 |                                                 |
 |      CCC   AA    SSS  TTTTT  EEEEE  PPPP        |
 |     C     A  A  S       T    E      P   P       |
 |     C     AAAA   SS     T    EEE    PPPP        |
 |     C     A  A     S    T    E      P           |
 |      CCC  A  A  SSS     T    EEEEE  P           |
 |                                                 |
 +-------------------------------------------------+
 |                                                 |
 | Welcome to Academic Release CASTEP version 19.11|          
 | Ab Initio Total Energy Program                  |
 |                                                 |
 | Authors:                                        |
 | M. Segall, M. Probert, C. Pickard, P. Hasnip,   |
 | S. Clark, K. Refson, J. R. Yates, M. Payne      |
 |                                                 |
 | Contributors:                                   |
 | P. Lindan, P. Haynes, J. White, V. Milman,      |
 | N. Govind, M. Gibson, P. Tulip, V. Cocula,      |
 | B. Montanari, D. Quigley, M. Glover,            |
 | L. Bernasconi, A. Perlov, M. Plummer,           |
 | E. McNellis, J. Meyer, J. Gale, D. Jochym       |
 | J. Aarons, B. Walker, R. Gillen, D. Jones       |
 | T. Green, I. J. Bush, C. J. Armstrong,          |
 | E. J. Higgins, E. L. Brown, M. S. McFly,        |
 | J. Wilkins, B-C. Shih, P. J. P. Byrne           |
 |                                                 |
 | Copyright (c) 2000 - 2018                       |
 |                                                 |
 |     Distributed under the terms of an           |
 |     Agreement between the United Kingdom        |
 |     Car-Parrinello (UKCP) Consortium,           |
 |     Daresbury Laboratory and Accelrys, Inc.     |
 |                                                 |
 | Please cite                                     |
 |                                                 |
 |     "First principles methods using CASTEP"     |
 |                                                 |
 |         Zeitschrift fuer Kristallographie       |
 |           220(5-6) pp. 567-570 (2005)           |
 |                                                 |
 | S. J. Clark, M. D. Segall, C. J. Pickard,       |
 | P. J. Hasnip, M. J. Probert, K. Refson,         |
 | M. C. Payne                                     |
 |                                                 |
 |       in all publications arising from          |
 |              your use of CASTEP                 |
 |                                                 |
 +-------------------------------------------------+
 |                                                 |
 |              http://www.castep.org              |
 |                                                 |
 +-------------------------------------------------+



 Compiled for linux_x86_64_gfortran7.0 on Fri, 31 Jan 2020 20:20:28 +0100
 from code version e1fe0d666396+ Castep191_branch Thu, 24 Oct 2019 13:54:03 +0100
 Compiler: GNU Fortran 7.4.0; Optimisation: fast
 MATHLIBS: default (LAPACK version 3.7.1)
 FFT Lib : default
 Fundamental constants values: CODATA 2014

 Run started: Fri, 12 Nov 2021 12:12:45 +0100
 +-------------------------------------------------+
 |                                                 |
 |           N   N    M   M    RRRR                |
 |           NN  N    MM MM    R   R               |
 |           N N N    M M M    RRRR                |
 |           N  NN    M   M    R  R                |
 |           N   N    M   M    R   R               |
 |                                                 |
 +-------------------------------------------------+
 |                                                 |
 | Welcome to Materials Studio CASTEP-NMR          |
 |                                                 |
 | Authors:                                        |
 | J.R. Yates, C.J. Pickard, F. Mauri              |
 |                                                 |
 | Contributors:                                   |
 | T.F.G. Green, S.A. Joyce, R.T. Strong,          |
 | B-C. Shih                                       |
 |                                                 |
 | Copyright (c) 2004 - 2018                       |
 |                                                 |
 | Please cite the appropriate publications in all |
 | work arising from your use of CASTEP NMR.       |
 |                                                 |
 | For NMR Shielding Tensors cite:                 |
 |    "All-electron magnetic response with         |
 |    pseudopotentials: NMR chemical shifts",      |
 |    C. J. Pickard, F. Mauri;                     |
 |    Physical Review B63 245101 (2001), and       |
 |                                                 |
 |    "Calculation of NMR Chemical Shifts          |
 |    for extended systems using                   |
 |    Ultrasoft Pseudopotentials",                 |
 |    J. R. Yates, C. J. Pickard and F. Mauri      |
 |    Physical Review B76 024401 (2007)            |
 |                                                 |
 | For Electric Field Gradients cite:              |
 |   "Accurate First Principles Prediction of 17O  |
 |    NMR Parameters in SiO2: Assignment of the    |
 |    Zeolite Ferrierite Spectrum"                 |
 |    M. Profeta, F. Mauri and C. J. Pickard       |
 |    J. Amer. Chem. Soc. 125 541 (2003)           |
 |                                                 |
 | For Spin-Spin (J) Couplings cite:               |
 |   "A first principles theory of NMR J-coupling  |
 |   in solid-state systems"                       |
 |   S.A. Joyce, J.R. Yates, C.J. Pickard, F. Mauri|
 |   J. Chem. Phys. 127 204107 (2007)              |
 |                                                 |
 |   "Relativistic NMR J-coupling with ultrasoft   |
 |   pseudopotentials and the zeroth-order regular |
 |   approximation"                                |
 |   T.F.G. Green and J.R. Yates                   |
 |   J. Chem. Phys. 140 234106 (2014)              |
 |                                                 |
 +-------------------------------------------------+


 Atomic calculation performed for Li: 1s2 2s1

 Converged in 48 iterations to an ae energy of -201.033 eV

   ============================================================                
   | Pseudopotential Report - Date of generation 12-11-2021   |                
   ------------------------------------------------------------                
   | Element: Li Ionic charge:  3.00 Level of theory: PBESOL  |                
   | Atomic Solver: Koelling-Harmon                           |                
   |                                                          |                
   |               Reference Electronic Structure             |                
   |         Orbital         Occupation         Energy        |                
   |            1s              2.000           -1.888        |                
   |            2s              1.000           -0.104        |                
   |                                                          |                
   |                 Pseudopotential Definition               |                
   |        Beta     l      e      Rc     scheme   norm       |                
   |          1      0   -1.888   1.001     qc      0         |                
   |          2      0   -0.104   1.001     qc      0         |                
   |          3      0    0.250   1.001     qc      0         |                
   |         loc     1    0.000   1.001     pn      0         |                
   |                                                          |                
   | Augmentation charge Rinner = 0.699                       |                
   | No partial core correction                               |                
   ------------------------------------------------------------                
   | "1|1.0|14|16|18|10U:20(qc=7)"                            |                
   ------------------------------------------------------------                
   |      Author: Chris J. Pickard, Cambridge University      |                
   ============================================================                

 Atomic calculation performed for O: 1s2 2s2 2p4

 Converged in 57 iterations to an ae energy of -2034.019 eV

   ============================================================                
   | Pseudopotential Report - Date of generation 12-11-2021   |                
   ------------------------------------------------------------                
   | Element: O Ionic charge:  6.00 Level of theory: PBESOL   |                
   | Atomic Solver: Koelling-Harmon                           |                
   |                                                          |                
   |               Reference Electronic Structure             |                
   |         Orbital         Occupation         Energy        |                
   |            2s              2.000           -0.875        |                
   |            2p              4.000           -0.330        |                
   |                                                          |                
   |                 Pseudopotential Definition               |                
   |        Beta     l      e      Rc     scheme   norm       |                
   |          1      0   -0.875   1.100     qc      0         |                
   |          2      0    0.250   1.100     qc      0         |                
   |          3      1   -0.330   1.100     qc      0         |                
   |          4      1    0.250   1.100     qc      0         |                
   |         loc     2    0.000   1.100     pn      0         |                
   |                                                          |                
   | Augmentation charge Rinner = 0.769                       |                
   | Partial core correction Rc = 0.769                       |                
   ------------------------------------------------------------                
   | "2|1.1|17|20|23|20:21(qc=8)"                             |                
   ------------------------------------------------------------                
   |      Author: Chris J. Pickard, Cambridge University      |                
   ============================================================                

 Atomic calculation performed for Al: 1s2 2s2 2p6 3s2 3p1

 Converged in 55 iterations to an ae energy of -6590.489 eV

   ============================================================                
   | Pseudopotential Report - Date of generation 12-11-2021   |                
   ------------------------------------------------------------                
   | Element: Al Ionic charge:  3.00 Level of theory: PBESOL  |                
   | Atomic Solver: Koelling-Harmon                           |                
   |                                                          |                
   |               Reference Electronic Structure             |                
   |         Orbital         Occupation         Energy        |                
   |            3s              2.000           -0.284        |                
   |            3p              1.000           -0.099        |                
   |                                                          |                
   |                 Pseudopotential Definition               |                
   |        Beta     l      e      Rc     scheme   norm       |                
   |          1      0   -0.284   2.192     qc      0         |                
   |          2      0    0.250   2.192     qc      0         |                
   |          3      1   -0.099   2.192     qc      0         |                
   |          4      1    0.250   2.192     qc      0         |                
   |          5      2    0.000   2.000     qc      0         |                
   |          6      2    0.250   2.000     qc      0         |                
   |         loc     3    0.000   2.192     pn      0         |                
   |                                                          |                
   | Augmentation charge Rinner = 1.398                       |                
   | Partial core correction Rc = 1.398                       |                
   ------------------------------------------------------------                
   | "3|2.2|2.2|1.4|4|5|5|30:31:32U2U2"                       |                
   ------------------------------------------------------------                
   |      Author: Chris J. Pickard, Cambridge University      |                
   ============================================================                

 Pseudo atomic calculation performed for Li 1s2 2s1

 Converged in 22 iterations to a total energy of -198.8771 eV

 Pseudo atomic calculation performed for O 2s2 2p4

 Converged in 33 iterations to a total energy of -431.0588 eV

 Pseudo atomic calculation performed for Al 3s2 3p1

 Converged in 20 iterations to a total energy of -105.9170 eV
 Calculation parallelised over 8 processes.
 Data is distributed by G-vector(2-way) and k-point(4-way)

 ************************************ Title ************************************
 

 ***************************** General Parameters ******************************
  
 output verbosity                               : normal  (1)
 write checkpoint data to                       : al2o3_xc-PBESOL_c-0700_k-2x2x2_sc-2x2x2_site-0_nmr.check
 type of calculation                            : Magnetic Resonance
 stress calculation                             : off
 density difference calculation                 : off
 electron localisation func (ELF) calculation   : off
 Hirshfeld analysis                             : off
 unlimited duration calculation
 timing information                             : on
 memory usage estimate                          : on
 write extra output files                       : on
 write final potential to formatted file        : off
 write final density to formatted file          : off
 write BibTeX reference list                    : on
 write OTFG pseudopotential files               : on
 write electrostatic potential file             : on
 write bands file                               : on
 checkpoint writing                             : both castep_bin and check files
  
 output         length unit                     : A
 output           mass unit                     : amu
 output           time unit                     : ps
 output         charge unit                     : e
 output           spin unit                     : hbar/2
 output         energy unit                     : eV
 output          force unit                     : eV/A
 output       velocity unit                     : A/ps
 output       pressure unit                     : GPa
 output     inv_length unit                     : 1/A
 output      frequency unit                     : cm-1
 output force constant unit                     : eV/A**2
 output         volume unit                     : A**3
 output   IR intensity unit                     : (D/A)**2/amu
 output         dipole unit                     : D
 output         efield unit                     : eV/A/e
 output        entropy unit                     : J/mol/K
  
 wavefunctions paging                           : none
 random number generator seed                   : randomised (121245382)
 data distribution                              : optimal for this architecture
 optimization strategy                          : maximize speed(+++)

 *********************** Exchange-Correlation Parameters ***********************
  
 using functional                               : PBE for solids (2008)
 relativistic treatment                         : Koelling-Harmon
 DFT+D: Semi-empirical dispersion correction    : off

 ************************* Pseudopotential Parameters **************************
  
 pseudopotential representation                 : reciprocal space
 <beta|phi> representation                      : reciprocal space
 spin-orbit coupling                            : off

 **************************** Basis Set Parameters *****************************
  
 plane wave basis set cut-off                   :   700.0000   eV
 size of standard grid                          :     1.7500
 size of   fine   gmax                          :    23.7206   1/A
 finite basis set correction                    : none

 **************************** Electronic Parameters ****************************
  
 number of  electrons                           :  386.0    
 net charge of system                           : +1.000    
 treating system as non-spin-polarized
 number of bands                                :        232

 ********************* Electronic Minimization Parameters **********************
  
 Method: Treating system as metallic with density mixing treatment of electrons,
         and number of  SD  steps               :          1
         and number of  CG  steps               :          4
  
 total energy / atom convergence tol.           : 0.1000E-07   eV
 eigen-energy convergence tolerance             : 0.4197E-08   eV
 max force / atom convergence tol.              : ignored
 convergence tolerance window                   :          3   cycles
 max. number of SCF cycles                      :         30
 number of fixed-spin iterations                :         10
 smearing scheme                                : Gaussian
 smearing width                                 : 0.2000       eV
 Fermi energy convergence tolerance             : 0.2721E-13   eV
 periodic dipole correction                     : NONE

 ************************** Density Mixing Parameters **************************
  
 density-mixing scheme                          : Broyden
 max. length of mixing history                  :         20
 charge density mixing amplitude                : 0.8000    
 cut-off energy for mixing                      :  700.0       eV

 *********************** Population Analysis Parameters ************************
  
 Population analysis with cutoff                :  3.000       A
 Population analysis output                     : summary and pdos components

 ************************ Magnetic Resonance Parameters ************************
  
 Magnetic Resonance Property                    : Chemical Shielding + EFG
 Position Operator Method                       : crystal
 max. number of MagRes CG steps                 :        250
 convergence tolerance window                   :          2   cycles
 energy convergence tolerance                   : 0.1000E-11   eV
 band convergence tolerance                     : 0.1000E-08   eV

 *******************************************************************************
  

                           -------------------------------
                                      Unit Cell
                           -------------------------------
        Real Lattice(A)                      Reciprocal Lattice(1/A)
     4.7723660     2.7553310     8.6751080        0.658288371   0.380062491   0.241425733
    -4.7723610     2.7553250     8.6751070       -0.658288899   0.380063208   0.241425885
    -0.0000020    -5.5106530     8.6751060        0.000000453  -0.760125830   0.241425940

                       Lattice parameters(A)       Cell Angles
                    a =     10.277394          alpha =   55.337047
                    b =     10.277389          beta  =   55.337094
                    c =     10.277391          gamma =   55.337041

                       Current cell volume =           684.435857       A**3
                                   density =             2.393682   AMU/A**3
                                           =             3.974802     g/cm^3

                           -------------------------------
                                     Cell Contents
                           -------------------------------
                         Total number of ions in cell =   81
                      Total number of species in cell =    3
                        Max number of any one species =   48

            xxxxxxxxxxxxxxxxxxxxxxxxxxxxxxxxxxxxxxxxxxxxxxxxxxxxxxxxxxxx
            x  Element    Atom        Fractional coordinates of atoms  x
            x            Number           u          v          w      x
            x----------------------------------------------------------x
            x  Li           1         0.250000   0.250000   0.250000   x 
            x  O            1         0.280488   0.465678   0.130259   x 
            x  O            2         0.465678   0.130259   0.280488   x 
            x  O            3         0.130259   0.280488   0.465679   x 
            x  O            4         0.034322   0.369741   0.219512   x 
            x  O            5         0.369741   0.219512   0.034322   x 
            x  O            6         0.219512   0.034322   0.369741   x 
            x  O            7         0.277975   0.474031   0.626405   x 
            x  O            8         0.471988   0.124521   0.779711   x 
            x  O            9         0.125062   0.275632   0.968082   x 
            x  O           10         0.028012   0.375479   0.720289   x 
            x  O           11         0.374938   0.224368   0.531918   x 
            x  O           12         0.222025   0.025969   0.873595   x 
            x  O           13         0.275632   0.968082   0.125062   x 
            x  O           14         0.474031   0.626405   0.277975   x 
            x  O           15         0.124521   0.779711   0.471988   x 
            x  O           16         0.025968   0.873595   0.222025   x 
            x  O           17         0.375479   0.720289   0.028012   x 
            x  O           18         0.224368   0.531918   0.374938   x 
            x  O           19         0.277547   0.973056   0.623326   x 
            x  O           20         0.472108   0.625568   0.777270   x 
            x  O           21         0.125630   0.775961   0.972621   x 
            x  O           22         0.027892   0.874432   0.722730   x 
            x  O           23         0.374370   0.724039   0.527379   x 
            x  O           24         0.222453   0.526944   0.876674   x 
            x  O           25         0.779711   0.471988   0.124521   x 
            x  O           26         0.968082   0.125062   0.275632   x 
            x  O           27         0.626405   0.277975   0.474031   x 
            x  O           28         0.531918   0.374938   0.224368   x 
            x  O           29         0.873595   0.222025   0.025969   x 
            x  O           30         0.720289   0.028012   0.375479   x 
            x  O           31         0.777270   0.472108   0.625568   x 
            x  O           32         0.972621   0.125631   0.775961   x 
            x  O           33         0.623325   0.277547   0.973056   x 
            x  O           34         0.527379   0.374370   0.724039   x 
            x  O           35         0.876674   0.222453   0.526944   x 
            x  O           36         0.722729   0.027892   0.874432   x 
            x  O           37         0.775960   0.972621   0.125631   x 
            x  O           38         0.973056   0.623326   0.277547   x 
            x  O           39         0.625568   0.777271   0.472108   x 
            x  O           40         0.526944   0.876675   0.222453   x 
            x  O           41         0.874432   0.722729   0.027892   x 
            x  O           42         0.724039   0.527379   0.374369   x 
            x  O           43         0.778141   0.972314   0.624698   x 
            x  O           44         0.972314   0.624698   0.778141   x 
            x  O           45         0.624698   0.778141   0.972314   x 
            x  O           46         0.527686   0.875302   0.721859   x 
            x  O           47         0.875302   0.721859   0.527686   x 
            x  O           48         0.721859   0.527686   0.875302   x 
            x  Al           1         0.069894   0.069894   0.069894   x 
            x  Al           2         0.332551   0.332551   0.332551   x 
            x  Al           3         0.430106   0.430107   0.430106   x 
            x  Al           4         0.167449   0.167449   0.167449   x 
            x  Al           5         0.073127   0.071833   0.575646   x 
            x  Al           6         0.324091   0.323909   0.824206   x 
            x  Al           7         0.426873   0.428167   0.924354   x 
            x  Al           8         0.175909   0.176091   0.675794   x 
            x  Al           9         0.071833   0.575646   0.073127   x 
            x  Al          10         0.323909   0.824206   0.324091   x 
            x  Al          11         0.428167   0.924354   0.426873   x 
            x  Al          12         0.176091   0.675794   0.175909   x 
            x  Al          13         0.073388   0.575001   0.575128   x 
            x  Al          14         0.324113   0.823620   0.823099   x 
            x  Al          15         0.426612   0.924999   0.924872   x 
            x  Al          16         0.175886   0.676380   0.676901   x 
            x  Al          17         0.575646   0.073127   0.071833   x 
            x  Al          18         0.824206   0.324091   0.323909   x 
            x  Al          19         0.924354   0.426873   0.428167   x 
            x  Al          20         0.675794   0.175909   0.176091   x 
            x  Al          21         0.575128   0.073388   0.575001   x 
            x  Al          22         0.823099   0.324114   0.823620   x 
            x  Al          23         0.924872   0.426612   0.924999   x 
            x  Al          24         0.676901   0.175886   0.676380   x 
            x  Al          25         0.575001   0.575128   0.073388   x 
            x  Al          26         0.823620   0.823099   0.324114   x 
            x  Al          27         0.924999   0.924872   0.426612   x 
            x  Al          28         0.676380   0.676901   0.175886   x 
            x  Al          29         0.574004   0.574004   0.574004   x 
            x  Al          30         0.823677   0.823677   0.823677   x 
            x  Al          31         0.925996   0.925996   0.925996   x 
            x  Al          32         0.676323   0.676323   0.676323   x 
            xxxxxxxxxxxxxxxxxxxxxxxxxxxxxxxxxxxxxxxxxxxxxxxxxxxxxxxxxxxx


                         No user defined ionic velocities

                           -------------------------------
                                   Details of Species
                           -------------------------------

                               Mass of species in AMU
                                    Li    6.9410000
                                    O   15.9994000
                                    Al   26.9815400

                          Electric Quadrupole Moment (Barn)
                                    Li    0.0314000  User Defined Isotope
                                    O   -0.0255800 Isotope 17
                                    Al    0.1466000 Isotope 27

                          Files used for pseudopotentials:
                                    Li 1|1.0|14|16|18|10U:20(qc=7)
                                    O 2|1.1|17|20|23|20:21(qc=8)
                                    Al 3|2.2|2.2|1.4|4|5|5|30:31:32U2U2

                           -------------------------------
                              k-Points For BZ Sampling
                           -------------------------------
                       MP grid size for SCF calculation is  2  2  2
                            with an offset of   0.000  0.000  0.000
                       Number of kpoints used =             4

                           -------------------------------
                               Symmetry and Constraints
                           -------------------------------

                      Maximum deviation from symmetry =  0.00000         ANG

                      Number of symmetry operations   =           1
                      Number of ionic constraints     =           3
                      Point group of crystal =     1: C1, 1, 1
                      Space group of crystal =   148: R-3, -R 3

             Set iprint > 1 for details on symmetry rotations/translations

                         Centre of mass is constrained
             Set iprint > 1 for details of linear ionic constraints

                         Number of cell constraints= 6
                         Cell constraints are:  0 0 0 0 0 0

                         External pressure/stress (GPa)
                          0.00000   0.00000   0.00000
                                    0.00000   0.00000
                                              0.00000
  
+---------------- MEMORY AND SCRATCH DISK ESTIMATES PER PROCESS --------------+
|                                                     Memory          Disk    |
| Baseline code, static data and system overhead      201.0 MB         0.0 MB |
| BLAS internal memory storage                          0.0 MB         0.0 MB |
| Model and support data                              775.6 MB         0.0 MB |
| Electronic energy minimisation requirements         308.7 MB         0.0 MB |
| Force calculation requirements                       37.8 MB         0.0 MB |
|                                               ----------------------------- |
| Approx. total storage required per process         1285.3 MB         0.0 MB |
|                                                                             |
| Requirements will fluctuate during execution and may exceed these estimates |
+-----------------------------------------------------------------------------+
Calculating total energy with cut-off of  700.000 eV.
------------------------------------------------------------------------ <-- SCF
SCF loop      Energy           Fermi           Energy gain       Timer   <-- SCF
                               energy          per atom          (sec)   <-- SCF
------------------------------------------------------------------------ <-- SCF
Initial  -1.81821499E+004  0.00000000E+000                        19.60  <-- SCF
      1  -2.29120861E+004  1.07986286E+001   5.83942741E+001      69.25  <-- SCF
      2  -2.49112761E+004  8.79578969E+000   2.46813577E+001     109.96  <-- SCF
      3  -2.49790905E+004  8.84569875E+000   8.37214978E-001     150.28  <-- SCF
      4  -2.49457438E+004  1.04586399E+001  -4.11687812E-001     208.08  <-- SCF
      5  -2.49206588E+004  9.82673501E+000  -3.09690766E-001     265.08  <-- SCF
      6  -2.49207079E+004  9.87961182E+000   6.05784028E-004     325.30  <-- SCF
      7  -2.49207191E+004  9.90786252E+000   1.37912605E-004     376.07  <-- SCF
      8  -2.49207189E+004  9.91090738E+000  -2.38397416E-006     433.20  <-- SCF
      9  -2.49207186E+004  9.91103197E+000  -4.09609448E-006     488.89  <-- SCF
     10  -2.49207184E+004  9.91132580E+000  -1.28447508E-006     537.55  <-- SCF
     11  -2.49207184E+004  9.91165392E+000  -4.91882624E-007     585.37  <-- SCF
     12  -2.49207184E+004  9.91163174E+000  -1.00625257E-008     624.80  <-- SCF
     13  -2.49207184E+004  9.91162442E+000  -5.38706233E-009     662.18  <-- SCF
     14  -2.49207184E+004  9.91161765E+000  -3.79822439E-010     698.56  <-- SCF
------------------------------------------------------------------------ <-- SCF
 
Final energy, E             =  -24920.71840492     eV
Final free energy (E-TS)    =  -24920.71840492     eV
(energies not corrected for finite basis set)
 
NB est. 0K energy (E-0.5TS)      =  -24920.71840492     eV
 

Writing analysis data to al2o3_xc-PBESOL_c-0700_k-2x2x2_sc-2x2x2_site-0_nmr.castep_bin

Writing model to al2o3_xc-PBESOL_c-0700_k-2x2x2_sc-2x2x2_site-0_nmr.check

  =====================================================================
  +       Calculation of Nuclear Magnetic Resonance Parameters        +
  + ================================================================= +

  Starting Calculation of Electric Field Gradient Tensors         |<-- EFG
  +---------------- MEMORY AND SCRATCH DISK ESTIMATES PER PROCESS --------------+
  |                                                     Memory          Disk    |
  | Model and support data                              772.8 MB         0.0 MB |
  | NMR EFG calculation requirements                    190.7 MB         0.0 MB |
  |                                               ----------------------------- |
  | Approx. total storage required per process          963.5 MB         0.0 MB |
  |                                                                             |
  | Requirements will fluctuate during execution and may exceed these estimates |
  +-----------------------------------------------------------------------------+
  Total Time for EFG Tensors                     244.44 sec       |<-- EFG

  Starting Calculation of Chemical Shielding Tensors              |<-- NMR
  +---------------- MEMORY AND SCRATCH DISK ESTIMATES PER PROCESS --------------+
  |                                                     Memory          Disk    |
  | Model and support data                              772.8 MB         0.0 MB |
  | NMR chemical shift calculation requirements         292.7 MB         0.0 MB |
  |                                               ----------------------------- |
  | Approx. total storage required per process         1065.4 MB         0.0 MB |
  |                                                                             |
  | Requirements will fluctuate during execution and may exceed these estimates |
  +-----------------------------------------------------------------------------+
  Starting k-point:   1 of   1                                    |<-- NMR
  Total Time for step 1 of 6:                    792.98 sec       |<-- NMR
  Total Time for step 2 of 6:                    795.97 sec       |<-- NMR
  Total Time for step 3 of 6:                    785.85 sec       |<-- NMR
  Total Time for step 4 of 6:                    788.26 sec       |<-- NMR
  Total Time for step 5 of 6:                    806.51 sec       |<-- NMR
  Total Time for step 6 of 6:                    805.08 sec       |<-- NMR
  Total Time for Chemical Shielding Tensors     6792.52 sec       |<-- NMR

  ===============================================================================
  |                Chemical Shielding and Electric Field Gradient Tensors       |
  |-----------------------------------------------------------------------------|
  |     Nucleus                       Shielding tensor             EFG Tensor   |
  |    Species            Ion    Iso(ppm)   Aniso(ppm)  Asym    Cq(MHz)    Eta  |
  |    Li                 1       86.64       1.69      0.00   2.773E-01   0.00 |
  |    O                  1      176.37     -22.07      0.18   2.102E+00   0.74 |
  |    O                  2      176.37     -22.09      0.18   2.103E+00   0.74 |
  |    O                  3      176.37     -22.12      0.18   2.103E+00   0.74 |
  |    O                  4      176.37     -22.10      0.18   2.102E+00   0.74 |
  |    O                  5      176.37     -22.12      0.18   2.103E+00   0.74 |
  |    O                  6      176.37     -22.07      0.18   2.103E+00   0.74 |
  |    O                  7      172.10      -4.99      0.68   2.084E+00   0.41 |
  |    O                  8      170.82       5.50      0.85   2.354E+00   0.49 |
  |    O                  9      174.50       8.97      0.82   2.422E+00   0.36 |
  |    O                 10      170.82       5.50      0.85   2.354E+00   0.49 |
  |    O                 11      174.50       8.98      0.82   2.422E+00   0.36 |
  |    O                 12      172.10      -4.99      0.68   2.084E+00   0.41 |
  |    O                 13      174.50       8.95      0.81   2.422E+00   0.36 |
  |    O                 14      172.10      -5.01      0.67   2.084E+00   0.41 |
  |    O                 15      170.82       5.53      0.84   2.354E+00   0.49 |
  |    O                 16      172.10      -5.02      0.67   2.084E+00   0.41 |
  |    O                 17      170.82       5.53      0.84   2.354E+00   0.49 |
  |    O                 18      174.50       8.95      0.81   2.422E+00   0.36 |
  |    O                 19      169.45      -6.51      0.75   2.187E+00   0.49 |
  |    O                 20      171.10      -5.69      0.61   2.184E+00   0.48 |
  |    O                 21      169.54      -3.82      0.95   2.269E+00   0.42 |
  |    O                 22      171.10      -5.70      0.61   2.184E+00   0.48 |
  |    O                 23      169.53      -3.82      0.95   2.269E+00   0.42 |
  |    O                 24      169.45      -6.51      0.75   2.187E+00   0.49 |
  |    O                 25      170.82       5.51      0.84   2.354E+00   0.49 |
  |    O                 26      174.50       8.93      0.82   2.422E+00   0.36 |
  |    O                 27      172.10      -5.02      0.68   2.084E+00   0.41 |
  |    O                 28      174.50       8.93      0.82   2.422E+00   0.36 |
  |    O                 29      172.10      -5.02      0.68   2.084E+00   0.41 |
  |    O                 30      170.82       5.51      0.84   2.354E+00   0.49 |
  |    O                 31      171.10      -5.68      0.62   2.184E+00   0.48 |
  |    O                 32      169.54      -3.82      0.95   2.269E+00   0.42 |
  |    O                 33      169.44      -6.52      0.75   2.187E+00   0.49 |
  |    O                 34      169.54      -3.82      0.95   2.269E+00   0.42 |
  |    O                 35      169.44      -6.52      0.75   2.187E+00   0.49 |
  |    O                 36      171.10      -5.68      0.62   2.183E+00   0.48 |
  |    O                 37      169.54      -3.80      0.96   2.269E+00   0.42 |
  |    O                 38      169.44      -6.55      0.74   2.187E+00   0.49 |
  |    O                 39      171.10      -5.69      0.62   2.184E+00   0.48 |
  |    O                 40      169.44      -6.54      0.74   2.187E+00   0.49 |
  |    O                 41      171.10      -5.70      0.62   2.184E+00   0.48 |
  |    O                 42      169.54      -3.80      0.96   2.269E+00   0.42 |
  |    O                 43      171.92       5.42      0.90   2.193E+00   0.53 |
  |    O                 44      171.92       5.43      0.91   2.193E+00   0.53 |
  |    O                 45      171.92       5.41      0.91   2.193E+00   0.53 |
  |    O                 46      171.92       5.42      0.91   2.193E+00   0.53 |
  |    O                 47      171.92       5.42      0.91   2.193E+00   0.53 |
  |    O                 48      171.92       5.42      0.90   2.193E+00   0.53 |
  |    Al                 1      532.38     -18.32      0.00   4.557E+00   0.00 |
  |    Al                 2      531.22       8.96      0.00  -2.452E+00   0.00 |
  |    Al                 3      532.38     -18.32      0.00   4.557E+00   0.00 |
  |    Al                 4      531.22       8.96      0.00  -2.452E+00   0.00 |
  |    Al                 5      535.73     -13.13      0.48   3.109E+00   0.43 |
  |    Al                 6      537.17     -12.08      0.29   2.438E+00   0.43 |
  |    Al                 7      535.74     -13.13      0.48   3.109E+00   0.43 |
  |    Al                 8      537.17     -12.09      0.29   2.438E+00   0.42 |
  |    Al                 9      535.73     -13.12      0.48   3.109E+00   0.43 |
  |    Al                10      537.17     -12.09      0.29   2.438E+00   0.42 |
  |    Al                11      535.74     -13.12      0.48   3.109E+00   0.43 |
  |    Al                12      537.17     -12.09      0.29   2.438E+00   0.42 |
  |    Al                13      537.54     -11.15      0.18   2.246E+00   0.24 |
  |    Al                14      537.45     -11.37      0.21   2.515E+00   0.61 |
  |    Al                15      537.54     -11.15      0.18   2.246E+00   0.24 |
  |    Al                16      537.45     -11.37      0.21   2.515E+00   0.61 |
  |    Al                17      535.73     -13.13      0.48   3.109E+00   0.43 |
  |    Al                18      537.17     -12.08      0.29   2.438E+00   0.42 |
  |    Al                19      535.73     -13.13      0.48   3.109E+00   0.43 |
  |    Al                20      537.17     -12.08      0.29   2.438E+00   0.42 |
  |    Al                21      537.54     -11.14      0.18   2.246E+00   0.24 |
  |    Al                22      537.45     -11.37      0.21   2.515E+00   0.61 |
  |    Al                23      537.54     -11.14      0.18   2.246E+00   0.24 |
  |    Al                24      537.45     -11.37      0.21   2.515E+00   0.61 |
  |    Al                25      537.54     -11.14      0.18   2.246E+00   0.24 |
  |    Al                26      537.45     -11.37      0.21   2.515E+00   0.61 |
  |    Al                27      537.54     -11.15      0.18   2.246E+00   0.24 |
  |    Al                28      537.45     -11.37      0.21   2.515E+00   0.61 |
  |    Al                29      537.48     -11.46      0.00   2.278E+00   0.00 |
  |    Al                30      537.27     -12.68      0.00   2.491E+00   0.00 |
  |    Al                31      537.49     -11.46      0.00   2.278E+00   0.00 |
  |    Al                32      537.27     -12.68      0.00   2.491E+00   0.00 |
  ===============================================================================

 ************************** Forces **************************
 *                                                          *
 *               Cartesian components (eV/A)                *
 * -------------------------------------------------------- *
 *                         x            y            z      *
 *                                                          *
 * Li              1      0.00001     -0.00000      0.00002 *
 * O               1     -0.00003     -0.00125      0.00014 *
 * O               2     -0.00114      0.00061      0.00019 *
 * O               3      0.00104      0.00071      0.00001 *
 * O               4      0.00110     -0.00066     -0.00019 *
 * O               5     -0.00112     -0.00064     -0.00018 *
 * O               6     -0.00000      0.00125     -0.00023 *
 * O               7     -0.00200     -0.00223      0.00116 *
 * O               8      0.00210      0.00149     -0.00312 *
 * O               9     -0.00443      0.00430     -0.00348 *
 * O              10     -0.00216     -0.00146      0.00337 *
 * O              11      0.00445     -0.00433      0.00349 *
 * O              12      0.00199      0.00220     -0.00116 *
 * O              13      0.00593      0.00164     -0.00352 *
 * O              14     -0.00099      0.00288      0.00121 *
 * O              15      0.00022     -0.00255     -0.00327 *
 * O              16      0.00098     -0.00274     -0.00103 *
 * O              17     -0.00022      0.00255      0.00327 *
 * O              18     -0.00603     -0.00166      0.00345 *
 * O              19     -0.00174      0.00017      0.00253 *
 * O              20     -0.00046      0.00167     -0.00464 *
 * O              21     -0.00378     -0.00129     -0.00012 *
 * O              22      0.00040     -0.00170      0.00464 *
 * O              23      0.00376      0.00127      0.00008 *
 * O              24      0.00173     -0.00017     -0.00253 *
 * O              25     -0.00233      0.00111     -0.00328 *
 * O              26     -0.00150     -0.00599     -0.00348 *
 * O              27      0.00291     -0.00059      0.00117 *
 * O              28      0.00151      0.00599      0.00352 *
 * O              29     -0.00295      0.00059     -0.00115 *
 * O              30      0.00232     -0.00111      0.00331 *
 * O              31     -0.00126     -0.00118     -0.00464 *
 * O              32      0.00308     -0.00273     -0.00027 *
 * O              33      0.00082     -0.00150      0.00267 *
 * O              34     -0.00297      0.00264      0.00009 *
 * O              35     -0.00069      0.00159     -0.00263 *
 * O              36      0.00135      0.00121      0.00470 *
 * O              37      0.00090      0.00406     -0.00015 *
 * O              38      0.00107      0.00140      0.00263 *
 * O              39      0.00173     -0.00055     -0.00473 *
 * O              40     -0.00088     -0.00148     -0.00272 *
 * O              41     -0.00173      0.00054      0.00468 *
 * O              42     -0.00080     -0.00401      0.00021 *
 * O              43      0.00001     -0.00066      0.00053 *
 * O              44     -0.00061      0.00039      0.00051 *
 * O              45      0.00061      0.00032      0.00053 *
 * O              46      0.00062     -0.00040     -0.00051 *
 * O              47     -0.00061     -0.00036     -0.00048 *
 * O              48      0.00000      0.00071     -0.00055 *
 * Al              1      0.00001     -0.00001      0.00751 *
 * Al              2      0.00005     -0.00001     -0.00293 *
 * Al              3      0.00009     -0.00007     -0.00771 *
 * Al              4     -0.00002      0.00001      0.00299 *
 * Al              5      0.00125      0.00627     -0.00167 *
 * Al              6      0.00420     -0.00428      0.00684 *
 * Al              7     -0.00130     -0.00628      0.00167 *
 * Al              8     -0.00418      0.00430     -0.00677 *
 * Al              9      0.00482     -0.00424     -0.00172 *
 * Al             10     -0.00579     -0.00148      0.00685 *
 * Al             11     -0.00480      0.00425      0.00175 *
 * Al             12      0.00580      0.00146     -0.00682 *
 * Al             13      0.00042      0.00607     -0.00706 *
 * Al             14     -0.00209      0.00345     -0.00473 *
 * Al             15     -0.00041     -0.00603      0.00697 *
 * Al             16      0.00220     -0.00338      0.00488 *
 * Al             17     -0.00611     -0.00203     -0.00168 *
 * Al             18      0.00160      0.00575      0.00681 *
 * Al             19      0.00606      0.00205      0.00171 *
 * Al             20     -0.00164     -0.00577     -0.00683 *
 * Al             21     -0.00549     -0.00269     -0.00706 *
 * Al             22     -0.00189     -0.00363     -0.00487 *
 * Al             23      0.00546      0.00269      0.00702 *
 * Al             24      0.00181      0.00360      0.00486 *
 * Al             25      0.00508     -0.00339     -0.00705 *
 * Al             26      0.00400      0.00018     -0.00487 *
 * Al             27     -0.00511      0.00336      0.00700 *
 * Al             28     -0.00408     -0.00016      0.00486 *
 * Al             29      0.00001      0.00003      0.00109 *
 * Al             30     -0.00001     -0.00002      0.00076 *
 * Al             31     -0.00009     -0.00003     -0.00106 *
 * Al             32     -0.00006      0.00001     -0.00076 *
 *                                                          *
 ************************************************************

 Pseudo atomic calculation performed for Li 1s2 2s1

 Converged in 22 iterations to a total energy of -198.8771 eV

 Pseudo atomic calculation performed for O 2s2 2p4

 Converged in 33 iterations to a total energy of -431.0588 eV

 Pseudo atomic calculation performed for Al 3s2 3p1

 Converged in 20 iterations to a total energy of -105.9170 eV
Charge spilling parameter for spin component 1 = 0.76%

            Orbital Populations       
     Ion    Atom   Orbital             Charge
  -------------------------------------------
     Li     1      S                    2.015
     Li     1      S                   -0.176
     Li     1      Px                   0.141
     Li     1      Py                   0.141
     Li     1      Pz                   0.090
      O     1      S                    1.831
      O     1      Px                   1.717
      O     1      Py                   1.730
      O     1      Pz                   1.724
      O     2      S                    1.831
      O     2      Px                   1.716
      O     2      Py                   1.732
      O     2      Pz                   1.724
      O     3      S                    1.832
      O     3      Px                   1.738
      O     3      Py                   1.709
      O     3      Pz                   1.724
      O     4      S                    1.831
      O     4      Px                   1.715
      O     4      Py                   1.732
      O     4      Pz                   1.724
      O     5      S                    1.832
      O     5      Px                   1.738
      O     5      Py                   1.709
      O     5      Pz                   1.724
      O     6      S                    1.831
      O     6      Px                   1.717
      O     6      Py                   1.730
      O     6      Pz                   1.724
      O     7      S                    1.832
      O     7      Px                   1.720
      O     7      Py                   1.752
      O     7      Pz                   1.746
      O     8      S                    1.832
      O     8      Px                   1.743
      O     8      Py                   1.726
      O     8      Pz                   1.742
      O     9      S                    1.831
      O     9      Px                   1.747
      O     9      Py                   1.722
      O     9      Pz                   1.745
      O    10      S                    1.832
      O    10      Px                   1.743
      O    10      Py                   1.727
      O    10      Pz                   1.742
      O    11      S                    1.831
      O    11      Px                   1.747
      O    11      Py                   1.722
      O    11      Pz                   1.745
      O    12      S                    1.832
      O    12      Px                   1.720
      O    12      Py                   1.752
      O    12      Pz                   1.746
      O    13      S                    1.831
      O    13      Px                   1.711
      O    13      Py                   1.758
      O    13      Pz                   1.745
      O    14      S                    1.832
      O    14      Px                   1.745
      O    14      Py                   1.727
      O    14      Pz                   1.746
      O    15      S                    1.832
      O    15      Px                   1.745
      O    15      Py                   1.726
      O    15      Pz                   1.742
      O    16      S                    1.832
      O    16      Px                   1.745
      O    16      Py                   1.727
      O    16      Pz                   1.746
      O    17      S                    1.832
      O    17      Px                   1.744
      O    17      Py                   1.725
      O    17      Pz                   1.742
      O    18      S                    1.831
      O    18      Px                   1.711
      O    18      Py                   1.758
      O    18      Pz                   1.745
      O    19      S                    1.832
      O    19      Px                   1.718
      O    19      Py                   1.752
      O    19      Pz                   1.737
      O    20      S                    1.832
      O    20      Px                   1.744
      O    20      Py                   1.727
      O    20      Pz                   1.743
      O    21      S                    1.832
      O    21      Px                   1.742
      O    21      Py                   1.727
      O    21      Pz                   1.742
      O    22      S                    1.832
      O    22      Px                   1.744
      O    22      Py                   1.726
      O    22      Pz                   1.743
      O    23      S                    1.832
      O    23      Px                   1.742
      O    23      Py                   1.727
      O    23      Pz                   1.742
      O    24      S                    1.832
      O    24      Px                   1.717
      O    24      Py                   1.752
      O    24      Pz                   1.737
      O    25      S                    1.832
      O    25      Px                   1.717
      O    25      Py                   1.753
      O    25      Pz                   1.742
      O    26      S                    1.831
      O    26      Px                   1.746
      O    26      Py                   1.724
      O    26      Pz                   1.745
      O    27      S                    1.832
      O    27      Px                   1.742
      O    27      Py                   1.729
      O    27      Pz                   1.747
      O    28      S                    1.831
      O    28      Px                   1.745
      O    28      Py                   1.724
      O    28      Pz                   1.745
      O    29      S                    1.832
      O    29      Px                   1.743
      O    29      Py                   1.730
      O    29      Pz                   1.746
      O    30      S                    1.832
      O    30      Px                   1.717
      O    30      Py                   1.753
      O    30      Pz                   1.742
      O    31      S                    1.832
      O    31      Px                   1.720
      O    31      Py                   1.751
      O    31      Pz                   1.743
      O    32      S                    1.832
      O    32      Px                   1.745
      O    32      Py                   1.724
      O    32      Pz                   1.742
      O    33      S                    1.832
      O    33      Px                   1.744
      O    33      Py                   1.726
      O    33      Pz                   1.738
      O    34      S                    1.832
      O    34      Px                   1.745
      O    34      Py                   1.723
      O    34      Pz                   1.742
      O    35      S                    1.832
      O    35      Px                   1.743
      O    35      Py                   1.726
      O    35      Pz                   1.738
      O    36      S                    1.832
      O    36      Px                   1.720
      O    36      Py                   1.751
      O    36      Pz                   1.743
      O    37      S                    1.832
      O    37      Px                   1.716
      O    37      Py                   1.753
      O    37      Pz                   1.742
      O    38      S                    1.832
      O    38      Px                   1.743
      O    38      Py                   1.726
      O    38      Pz                   1.737
      O    39      S                    1.832
      O    39      Px                   1.742
      O    39      Py                   1.729
      O    39      Pz                   1.744
      O    40      S                    1.832
      O    40      Px                   1.743
      O    40      Py                   1.727
      O    40      Pz                   1.737
      O    41      S                    1.832
      O    41      Px                   1.742
      O    41      Py                   1.729
      O    41      Pz                   1.743
      O    42      S                    1.832
      O    42      Px                   1.716
      O    42      Py                   1.753
      O    42      Pz                   1.742
      O    43      S                    1.832
      O    43      Px                   1.719
      O    43      Py                   1.754
      O    43      Pz                   1.741
      O    44      S                    1.832
      O    44      Px                   1.745
      O    44      Py                   1.728
      O    44      Pz                   1.741
      O    45      S                    1.832
      O    45      Px                   1.745
      O    45      Py                   1.728
      O    45      Pz                   1.741
      O    46      S                    1.832
      O    46      Px                   1.745
      O    46      Py                   1.728
      O    46      Pz                   1.740
      O    47      S                    1.832
      O    47      Px                   1.746
      O    47      Py                   1.729
      O    47      Pz                   1.741
      O    48      S                    1.832
      O    48      Px                   1.720
      O    48      Py                   1.754
      O    48      Pz                   1.741
     Al     1      S                    0.514
     Al     1      Px                   0.303
     Al     1      Py                   0.303
     Al     1      Pz                   0.290
     Al     2      S                    0.520
     Al     2      Px                   0.319
     Al     2      Py                   0.319
     Al     2      Pz                   0.354
     Al     3      S                    0.514
     Al     3      Px                   0.303
     Al     3      Py                   0.303
     Al     3      Pz                   0.290
     Al     4      S                    0.520
     Al     4      Px                   0.319
     Al     4      Py                   0.319
     Al     4      Pz                   0.354
     Al     5      S                    0.530
     Al     5      Px                   0.307
     Al     5      Py                   0.317
     Al     5      Pz                   0.300
     Al     6      S                    0.523
     Al     6      Px                   0.303
     Al     6      Py                   0.308
     Al     6      Pz                   0.296
     Al     7      S                    0.530
     Al     7      Px                   0.307
     Al     7      Py                   0.317
     Al     7      Pz                   0.300
     Al     8      S                    0.523
     Al     8      Px                   0.303
     Al     8      Py                   0.308
     Al     8      Pz                   0.296
     Al     9      S                    0.530
     Al     9      Px                   0.314
     Al     9      Py                   0.310
     Al     9      Pz                   0.300
     Al    10      S                    0.523
     Al    10      Px                   0.308
     Al    10      Py                   0.303
     Al    10      Pz                   0.296
     Al    11      S                    0.530
     Al    11      Px                   0.314
     Al    11      Py                   0.310
     Al    11      Pz                   0.300
     Al    12      S                    0.523
     Al    12      Px                   0.308
     Al    12      Py                   0.303
     Al    12      Pz                   0.296
     Al    13      S                    0.515
     Al    13      Px                   0.303
     Al    13      Py                   0.303
     Al    13      Pz                   0.297
     Al    14      S                    0.515
     Al    14      Px                   0.304
     Al    14      Py                   0.305
     Al    14      Pz                   0.296
     Al    15      S                    0.515
     Al    15      Px                   0.303
     Al    15      Py                   0.303
     Al    15      Pz                   0.297
     Al    16      S                    0.515
     Al    16      Px                   0.304
     Al    16      Py                   0.305
     Al    16      Pz                   0.296
     Al    17      S                    0.530
     Al    17      Px                   0.315
     Al    17      Py                   0.309
     Al    17      Pz                   0.300
     Al    18      S                    0.523
     Al    18      Px                   0.306
     Al    18      Py                   0.306
     Al    18      Pz                   0.296
     Al    19      S                    0.530
     Al    19      Px                   0.315
     Al    19      Py                   0.309
     Al    19      Pz                   0.300
     Al    20      S                    0.523
     Al    20      Px                   0.306
     Al    20      Py                   0.306
     Al    20      Pz                   0.296
     Al    21      S                    0.515
     Al    21      Px                   0.303
     Al    21      Py                   0.303
     Al    21      Pz                   0.297
     Al    22      S                    0.515
     Al    22      Px                   0.305
     Al    22      Py                   0.305
     Al    22      Pz                   0.296
     Al    23      S                    0.515
     Al    23      Px                   0.303
     Al    23      Py                   0.303
     Al    23      Pz                   0.297
     Al    24      S                    0.515
     Al    24      Px                   0.305
     Al    24      Py                   0.305
     Al    24      Pz                   0.296
     Al    25      S                    0.515
     Al    25      Px                   0.303
     Al    25      Py                   0.303
     Al    25      Pz                   0.297
     Al    26      S                    0.515
     Al    26      Px                   0.306
     Al    26      Py                   0.304
     Al    26      Pz                   0.296
     Al    27      S                    0.515
     Al    27      Px                   0.303
     Al    27      Py                   0.303
     Al    27      Pz                   0.297
     Al    28      S                    0.515
     Al    28      Px                   0.306
     Al    28      Py                   0.304
     Al    28      Pz                   0.296
     Al    29      S                    0.519
     Al    29      Px                   0.306
     Al    29      Py                   0.306
     Al    29      Pz                   0.299
     Al    30      S                    0.515
     Al    30      Px                   0.303
     Al    30      Py                   0.303
     Al    30      Pz                   0.295
     Al    31      S                    0.519
     Al    31      Px                   0.306
     Al    31      Py                   0.306
     Al    31      Pz                   0.299
     Al    32      S                    0.515
     Al    32      Px                   0.303
     Al    32      Py                   0.303
     Al    32      Pz                   0.295
  -------------------------------------------
                           Total:     385.994
  -------------------------------------------

     Atomic Populations (Mulliken)
     -----------------------------
Species          Ion     s      p      d      f     Total  Charge (e)
=====================================================================
  Li              1     1.84   0.37   0.00   0.00   2.21     0.79
  O               1     1.83   5.17   0.00   0.00   7.00    -1.00
  O               2     1.83   5.17   0.00   0.00   7.00    -1.00
  O               3     1.83   5.17   0.00   0.00   7.00    -1.00
  O               4     1.83   5.17   0.00   0.00   7.00    -1.00
  O               5     1.83   5.17   0.00   0.00   7.00    -1.00
  O               6     1.83   5.17   0.00   0.00   7.00    -1.00
  O               7     1.83   5.22   0.00   0.00   7.05    -1.05
  O               8     1.83   5.21   0.00   0.00   7.04    -1.04
  O               9     1.83   5.21   0.00   0.00   7.05    -1.05
  O              10     1.83   5.21   0.00   0.00   7.04    -1.04
  O              11     1.83   5.21   0.00   0.00   7.04    -1.04
  O              12     1.83   5.22   0.00   0.00   7.05    -1.05
  O              13     1.83   5.21   0.00   0.00   7.04    -1.04
  O              14     1.83   5.22   0.00   0.00   7.05    -1.05
  O              15     1.83   5.21   0.00   0.00   7.04    -1.04
  O              16     1.83   5.22   0.00   0.00   7.05    -1.05
  O              17     1.83   5.21   0.00   0.00   7.04    -1.04
  O              18     1.83   5.21   0.00   0.00   7.05    -1.05
  O              19     1.83   5.21   0.00   0.00   7.04    -1.04
  O              20     1.83   5.21   0.00   0.00   7.05    -1.05
  O              21     1.83   5.21   0.00   0.00   7.04    -1.04
  O              22     1.83   5.21   0.00   0.00   7.05    -1.05
  O              23     1.83   5.21   0.00   0.00   7.04    -1.04
  O              24     1.83   5.21   0.00   0.00   7.04    -1.04
  O              25     1.83   5.21   0.00   0.00   7.04    -1.04
  O              26     1.83   5.21   0.00   0.00   7.05    -1.05
  O              27     1.83   5.22   0.00   0.00   7.05    -1.05
  O              28     1.83   5.21   0.00   0.00   7.04    -1.04
  O              29     1.83   5.22   0.00   0.00   7.05    -1.05
  O              30     1.83   5.21   0.00   0.00   7.04    -1.04
  O              31     1.83   5.21   0.00   0.00   7.05    -1.05
  O              32     1.83   5.21   0.00   0.00   7.04    -1.04
  O              33     1.83   5.21   0.00   0.00   7.04    -1.04
  O              34     1.83   5.21   0.00   0.00   7.04    -1.04
  O              35     1.83   5.21   0.00   0.00   7.04    -1.04
  O              36     1.83   5.21   0.00   0.00   7.05    -1.05
  O              37     1.83   5.21   0.00   0.00   7.04    -1.04
  O              38     1.83   5.21   0.00   0.00   7.04    -1.04
  O              39     1.83   5.21   0.00   0.00   7.05    -1.05
  O              40     1.83   5.21   0.00   0.00   7.04    -1.04
  O              41     1.83   5.21   0.00   0.00   7.05    -1.05
  O              42     1.83   5.21   0.00   0.00   7.04    -1.04
  O              43     1.83   5.21   0.00   0.00   7.05    -1.05
  O              44     1.83   5.21   0.00   0.00   7.05    -1.05
  O              45     1.83   5.21   0.00   0.00   7.05    -1.05
  O              46     1.83   5.21   0.00   0.00   7.05    -1.05
  O              47     1.83   5.22   0.00   0.00   7.05    -1.05
  O              48     1.83   5.21   0.00   0.00   7.05    -1.05
  Al              1     0.51   0.90   0.00   0.00   1.41     1.59
  Al              2     0.52   0.99   0.00   0.00   1.51     1.49
  Al              3     0.51   0.90   0.00   0.00   1.41     1.59
  Al              4     0.52   0.99   0.00   0.00   1.51     1.49
  Al              5     0.53   0.92   0.00   0.00   1.45     1.55
  Al              6     0.52   0.91   0.00   0.00   1.43     1.57
  Al              7     0.53   0.92   0.00   0.00   1.45     1.55
  Al              8     0.52   0.91   0.00   0.00   1.43     1.57
  Al              9     0.53   0.92   0.00   0.00   1.45     1.55
  Al             10     0.52   0.91   0.00   0.00   1.43     1.57
  Al             11     0.53   0.92   0.00   0.00   1.45     1.55
  Al             12     0.52   0.91   0.00   0.00   1.43     1.57
  Al             13     0.52   0.90   0.00   0.00   1.42     1.58
  Al             14     0.52   0.91   0.00   0.00   1.42     1.58
  Al             15     0.52   0.90   0.00   0.00   1.42     1.58
  Al             16     0.52   0.91   0.00   0.00   1.42     1.58
  Al             17     0.53   0.92   0.00   0.00   1.45     1.55
  Al             18     0.52   0.91   0.00   0.00   1.43     1.57
  Al             19     0.53   0.92   0.00   0.00   1.45     1.55
  Al             20     0.52   0.91   0.00   0.00   1.43     1.57
  Al             21     0.52   0.90   0.00   0.00   1.42     1.58
  Al             22     0.52   0.91   0.00   0.00   1.42     1.58
  Al             23     0.52   0.90   0.00   0.00   1.42     1.58
  Al             24     0.52   0.91   0.00   0.00   1.42     1.58
  Al             25     0.52   0.90   0.00   0.00   1.42     1.58
  Al             26     0.52   0.91   0.00   0.00   1.42     1.58
  Al             27     0.52   0.90   0.00   0.00   1.42     1.58
  Al             28     0.52   0.91   0.00   0.00   1.42     1.58
  Al             29     0.52   0.91   0.00   0.00   1.43     1.57
  Al             30     0.52   0.90   0.00   0.00   1.42     1.58
  Al             31     0.52   0.91   0.00   0.00   1.43     1.57
  Al             32     0.52   0.90   0.00   0.00   1.42     1.58
=====================================================================

                 Bond                   Population      Length (A)
======================================================================
              O 14 -- Al 3                   0.40        1.83399
              O 7  -- Al 3                   0.40        1.83399
              O 29 -- Al 1                   0.40        1.83399
              O 27 -- Al 3                   0.40        1.83399
              O 12 -- Al 1                   0.40        1.83399
              O 16 -- Al 1                   0.40        1.83400
              O 41 -- Al 9                   0.38        1.84448
              O 22 -- Al 5                   0.38        1.84448
              O 39 -- Al 11                  0.38        1.84448
              O 20 -- Al 7                   0.38        1.84448
              O 31 -- Al 19                  0.38        1.84448
              O 36 -- Al 17                  0.38        1.84448
              O 36 -- Al 24                  0.38        1.85267
              O 39 -- Al 26                  0.38        1.85267
              O 41 -- Al 28                  0.38        1.85267
              O 31 -- Al 22                  0.38        1.85267
              O 22 -- Al 16                  0.38        1.85267
              O 20 -- Al 14                  0.38        1.85267
              O 12 -- Al 8                   0.37        1.85314
              O 7  -- Al 6                   0.37        1.85314
              O 16 -- Al 12                  0.37        1.85314
              O 14 -- Al 10                  0.37        1.85314
              O 29 -- Al 20                  0.37        1.85314
              O 27 -- Al 18                  0.37        1.85314
              O 33 -- Al 7                   0.42        1.85371
              O 40 -- Al 17                  0.42        1.85371
              O 38 -- Al 19                  0.42        1.85372
              O 24 -- Al 9                   0.42        1.85372
              O 35 -- Al 5                   0.42        1.85372
              O 19 -- Al 11                  0.42        1.85372
              O 8  -- Al 6                   0.38        1.85767
              O 10 -- Al 8                   0.38        1.85767
              O 30 -- Al 20                  0.38        1.85767
              O 25 -- Al 18                  0.38        1.85767
              O 17 -- Al 12                  0.38        1.85767
              O 15 -- Al 10                  0.38        1.85767
              O 43 -- Al 30                  0.38        1.85917
              O 44 -- Al 30                  0.38        1.85917
              O 46 -- Al 32                  0.38        1.85917
              O 48 -- Al 32                  0.38        1.85917
              O 45 -- Al 30                  0.38        1.85917
              O 47 -- Al 32                  0.38        1.85917
              O 45 -- Al 15                  0.38        1.85933
              O 47 -- Al 13                  0.38        1.85933
              O 46 -- Al 21                  0.38        1.85934
              O 44 -- Al 23                  0.38        1.85934
              O 48 -- Al 25                  0.38        1.85934
              O 43 -- Al 27                  0.38        1.85934
              O 28 -- Al 25                  0.37        1.86013
              O 26 -- Al 27                  0.37        1.86013
              O 9  -- Al 23                  0.37        1.86013
              O 11 -- Al 21                  0.37        1.86013
              O 13 -- Al 15                  0.37        1.86013
              O 18 -- Al 13                  0.37        1.86013
              O 15 -- Al 27                  0.38        1.86133
              O 8  -- Al 15                  0.38        1.86133
              O 10 -- Al 13                  0.38        1.86133
              O 17 -- Al 25                  0.38        1.86133
              O 25 -- Al 23                  0.38        1.86133
              O 30 -- Al 21                  0.38        1.86133
              O 42 -- Al 28                  0.37        1.86471
              O 32 -- Al 22                  0.37        1.86471
              O 21 -- Al 14                  0.37        1.86471
              O 37 -- Al 26                  0.37        1.86472
              O 34 -- Al 24                  0.37        1.86472
              O 23 -- Al 16                  0.37        1.86472
              O 21 -- Al 31                  0.38        1.86976
              O 34 -- Al 29                  0.38        1.86976
              O 23 -- Al 29                  0.38        1.86976
              O 42 -- Al 29                  0.38        1.86977
              O 32 -- Al 31                  0.38        1.86977
              O 37 -- Al 31                  0.38        1.86977
              O 26 -- Al 18                  0.37        1.86979
              O 13 -- Al 10                  0.37        1.86979
              O 18 -- Al 12                  0.37        1.86979
              O 28 -- Al 20                  0.37        1.86979
              O 9  -- Al 6                   0.37        1.86979
              O 11 -- Al 8                   0.37        1.86979
              O 11 -- Al 2                   0.34        1.87009
              O 18 -- Al 2                   0.34        1.87010
              O 13 -- Al 4                   0.34        1.87010
              O 9  -- Al 4                   0.34        1.87010
              O 28 -- Al 2                   0.34        1.87010
              O 26 -- Al 4                   0.34        1.87010
              O 19 -- Al 14                  0.37        1.87029
              O 24 -- Al 16                  0.37        1.87029
              O 38 -- Al 26                  0.37        1.87029
              O 35 -- Al 24                  0.37        1.87030
              O 40 -- Al 28                  0.37        1.87030
              O 33 -- Al 22                  0.37        1.87030
              O 4  -- Al 9                   0.38        1.88069
              O 2  -- Al 11                  0.38        1.88069
              O 5  -- Al 17                  0.38        1.88069
              O 6  -- Al 5                   0.38        1.88069
              O 1  -- Al 7                   0.38        1.88069
              O 3  -- Al 19                  0.38        1.88069
              O 1  -- Al 2                   0.34        1.91772
              O 2  -- Al 2                   0.34        1.91772
              O 6  -- Al 4                   0.33        1.91772
              O 4  -- Al 4                   0.33        1.91772
              O 5  -- Al 4                   0.33        1.91772
              O 3  -- Al 2                   0.33        1.91772
              Li 1 -- O 1                    0.04        1.94281
              Li 1 -- O 6                    0.04        1.94281
              Li 1 -- O 2                    0.04        1.94281
              Li 1 -- O 4                    0.04        1.94281
              Li 1 -- O 5                    0.04        1.94281
              Li 1 -- O 3                    0.04        1.94282
              O 16 -- Al 26                  0.29        1.95481
              O 27 -- Al 24                  0.29        1.95481
              O 7  -- Al 16                  0.29        1.95481
              O 29 -- Al 22                  0.29        1.95481
              O 14 -- Al 28                  0.29        1.95481
              O 12 -- Al 14                  0.29        1.95482
              O 48 -- Al 23                  0.29        1.95870
              O 45 -- Al 25                  0.29        1.95870
              O 43 -- Al 21                  0.29        1.95870
              O 47 -- Al 27                  0.29        1.95870
              O 46 -- Al 15                  0.29        1.95870
              O 44 -- Al 13                  0.29        1.95870
              O 37 -- Al 17                  0.29        1.95887
              O 34 -- Al 7                   0.29        1.95887
              O 23 -- Al 11                  0.29        1.95887
              O 21 -- Al 9                   0.29        1.95887
              O 42 -- Al 19                  0.29        1.95888
              O 32 -- Al 5                   0.29        1.95888
              O 40 -- Al 11                  0.33        1.96561
              O 33 -- Al 17                  0.33        1.96561
              O 19 -- Al 5                   0.33        1.96562
              O 35 -- Al 19                  0.33        1.96562
              O 38 -- Al 9                   0.33        1.96562
              O 24 -- Al 7                   0.33        1.96562
              O 42 -- Al 18                  0.29        1.96785
              O 32 -- Al 8                   0.29        1.96785
              O 37 -- Al 20                  0.29        1.96785
              O 21 -- Al 12                  0.29        1.96785
              O 23 -- Al 10                  0.29        1.96785
              O 34 -- Al 6                   0.29        1.96785
              O 31 -- Al 29                  0.28        1.97006
              O 22 -- Al 31                  0.28        1.97006
              O 20 -- Al 29                  0.28        1.97006
              O 41 -- Al 31                  0.28        1.97007
              O 36 -- Al 31                  0.28        1.97007
              O 39 -- Al 29                  0.28        1.97007
              O 35 -- Al 18                  0.29        1.97381
              O 19 -- Al 8                   0.29        1.97381
              O 24 -- Al 6                   0.29        1.97381
              O 38 -- Al 12                  0.29        1.97381
              O 33 -- Al 20                  0.29        1.97381
              O 40 -- Al 10                  0.29        1.97382
              O 47 -- Al 26                  0.29        1.97515
              O 48 -- Al 22                  0.29        1.97515
              O 43 -- Al 24                  0.29        1.97515
              O 45 -- Al 28                  0.29        1.97515
              O 44 -- Al 16                  0.29        1.97515
              O 46 -- Al 14                  0.29        1.97516
              O 39 -- Al 32                  0.28        1.97643
              O 36 -- Al 30                  0.28        1.97643
              O 41 -- Al 30                  0.28        1.97643
              O 31 -- Al 32                  0.28        1.97644
              O 20 -- Al 32                  0.28        1.97644
              O 22 -- Al 30                  0.28        1.97644
              O 17 -- Al 15                  0.29        1.97822
              O 30 -- Al 27                  0.29        1.97822
              O 25 -- Al 25                  0.29        1.97822
              O 8  -- Al 21                  0.29        1.97822
              O 15 -- Al 13                  0.29        1.97822
              O 10 -- Al 23                  0.29        1.97822
              O 30 -- Al 26                  0.29        1.98103
              O 25 -- Al 28                  0.29        1.98103
              O 15 -- Al 16                  0.29        1.98103
              O 10 -- Al 22                  0.29        1.98103
              O 8  -- Al 24                  0.29        1.98103
              O 17 -- Al 14                  0.29        1.98104
[...]
              O 17 -- O 21                  -0.08        2.62032
              O 8  -- O 34                  -0.08        2.62032
              O 15 -- O 23                  -0.08        2.62032
              O 20 -- O 34                  -0.08        2.62143
              O 21 -- O 41                  -0.08        2.62143
              O 23 -- O 39                  -0.08        2.62143
              O 36 -- O 37                  -0.08        2.62143
              O 31 -- O 42                  -0.08        2.62143
              O 22 -- O 32                  -0.08        2.62144
              O 39 -- O 47                  -0.08        2.62165
              O 36 -- O 43                  -0.08        2.62165
              O 41 -- O 45                  -0.08        2.62165
              O 22 -- O 44                  -0.08        2.62166
              O 20 -- O 46                  -0.08        2.62166
              O 31 -- O 48                  -0.08        2.62166
              O 8  -- O 46                  -0.08        2.63038
              O 25 -- O 48                  -0.08        2.63038
              O 30 -- O 43                  -0.08        2.63038
              O 10 -- O 44                  -0.08        2.63038
              O 17 -- O 45                  -0.08        2.63038
              O 15 -- O 47                  -0.08        2.63038
              O 3  -- O 11                  -0.08        2.64016
              O 1  -- O 18                  -0.08        2.64017
              O 2  -- O 28                  -0.08        2.64017
              O 4  -- O 26                  -0.08        2.64017
              O 5  -- O 9                   -0.08        2.64017
              O 6  -- O 13                  -0.08        2.64017
              O 2  -- O 40                  -0.07        2.64930
              O 5  -- O 33                  -0.07        2.64930
              O 4  -- O 38                  -0.07        2.64930
              O 6  -- O 19                  -0.07        2.64930
              O 1  -- O 24                  -0.07        2.64931
              O 3  -- O 35                  -0.07        2.64931
             Al 26 -- Al 27                 -0.20        2.65155
             Al 21 -- Al 24                 -0.20        2.65155
             Al 13 -- Al 16                 -0.20        2.65155
             Al 25 -- Al 28                 -0.20        2.65155
             Al 22 -- Al 23                 -0.20        2.65155
             Al 14 -- Al 15                 -0.20        2.65156
             Al 29 -- Al 32                 -0.19        2.66289
             Al 30 -- Al 31                 -0.19        2.66289
             Al 17 -- Al 20                 -0.15        2.66496
             Al 5  -- Al 8                  -0.15        2.66496
             Al 10 -- Al 11                 -0.15        2.66496
             Al 9  -- Al 12                 -0.15        2.66496
             Al 18 -- Al 19                 -0.15        2.66496
             Al 6  -- Al 7                  -0.15        2.66496
              O 9  -- O 10                  -0.06        2.69923
              O 13 -- O 17                  -0.06        2.69923
              O 8  -- O 11                  -0.06        2.69923
              O 15 -- O 18                  -0.06        2.69923
              O 25 -- O 28                  -0.06        2.69923
              O 26 -- O 30                  -0.06        2.69923
              O 9  -- O 12                  -0.05        2.71013
              O 27 -- O 28                  -0.05        2.71013
              O 26 -- O 29                  -0.05        2.71013
              O 7  -- O 11                  -0.05        2.71013
              O 14 -- O 18                  -0.05        2.71013
              O 13 -- O 16                  -0.05        2.71014
              O 37 -- O 40                  -0.05        2.71475
              O 33 -- O 34                  -0.05        2.71475
              O 19 -- O 23                  -0.05        2.71476
              O 21 -- O 24                  -0.05        2.71476
              O 32 -- O 35                  -0.05        2.71477
              O 38 -- O 42                  -0.05        2.71477
              O 2  -- O 5                   -0.06        2.71719
              O 1  -- O 5                   -0.06        2.71719
              O 1  -- O 4                   -0.06        2.71719
              O 2  -- O 6                   -0.06        2.71719
              O 3  -- O 6                   -0.06        2.71719
              O 3  -- O 4                   -0.06        2.71720
              O 29 -- O 32                  -0.05        2.71905
              O 14 -- O 42                  -0.05        2.71905
              O 16 -- O 37                  -0.05        2.71906
              O 12 -- O 21                  -0.05        2.71906
              O 7  -- O 23                  -0.05        2.71906
              O 27 -- O 34                  -0.05        2.71906
              O 12 -- O 32                  -0.05        2.71960
              O 16 -- O 21                  -0.05        2.71960
              O 27 -- O 42                  -0.05        2.71960
              O 7  -- O 34                  -0.05        2.71960
              O 14 -- O 23                  -0.05        2.71961
              O 29 -- O 37                  -0.05        2.71961
              O 30 -- O 39                  -0.05        2.72350
              O 8  -- O 36                  -0.05        2.72351
              O 25 -- O 41                  -0.05        2.72351
              O 17 -- O 20                  -0.05        2.72351
              O 10 -- O 31                  -0.05        2.72352
              O 15 -- O 22                  -0.05        2.72352
              O 20 -- O 23                  -0.05        2.72958
              O 21 -- O 22                  -0.05        2.72959
              O 31 -- O 34                  -0.05        2.72959
              O 37 -- O 41                  -0.05        2.72960
              O 39 -- O 42                  -0.05        2.72960
              O 32 -- O 36                  -0.05        2.72960
              O 39 -- O 40                  -0.05        2.73004
              O 31 -- O 35                  -0.05        2.73004
              O 33 -- O 36                  -0.05        2.73004
              O 19 -- O 22                  -0.05        2.73004
              O 20 -- O 24                  -0.05        2.73005
              O 38 -- O 41                  -0.05        2.73005
              O 41 -- O 44                  -0.05        2.73259
              O 39 -- O 46                  -0.05        2.73259
              O 36 -- O 45                  -0.05        2.73259
              O 31 -- O 47                  -0.05        2.73260
              O 22 -- O 43                  -0.05        2.73260
              O 20 -- O 48                  -0.05        2.73260
              O 45 -- O 48                  -0.05        2.73493
              O 44 -- O 47                  -0.05        2.73493
              O 45 -- O 46                  -0.05        2.73493
              O 43 -- O 47                  -0.05        2.73493
              O 43 -- O 46                  -0.05        2.73493
              O 44 -- O 48                  -0.05        2.73493
              O 24 -- O 44                  -0.05        2.74041
              O 35 -- O 43                  -0.05        2.74041
              O 19 -- O 46                  -0.05        2.74041
              O 38 -- O 47                  -0.05        2.74041
              O 33 -- O 48                  -0.05        2.74042
              O 40 -- O 45                  -0.05        2.74042
              O 3  -- O 10                  -0.05        2.74148
              O 6  -- O 15                  -0.05        2.74148
              O 1  -- O 17                  -0.05        2.74148
              O 2  -- O 30                  -0.05        2.74148
              O 4  -- O 25                  -0.05        2.74148
              O 5  -- O 8                   -0.05        2.74148
              O 3  -- O 18                  -0.05        2.74922
              O 1  -- O 28                  -0.05        2.74922
              O 2  -- O 11                  -0.05        2.74922
              O 5  -- O 13                  -0.05        2.74922
              O 6  -- O 26                  -0.05        2.74922
              O 4  -- O 9                   -0.05        2.74922
              O 14 -- O 17                  -0.05        2.75409
              O 27 -- O 30                  -0.05        2.75409
              O 25 -- O 29                  -0.05        2.75409
              O 8  -- O 12                  -0.05        2.75409
              O 7  -- O 10                  -0.05        2.75409
              O 15 -- O 16                  -0.05        2.75409
             Al 4  -- Al 10                 -0.14        2.76657
             Al 2  -- Al 12                 -0.14        2.76657
             Al 4  -- Al 6                  -0.14        2.76658
             Al 2  -- Al 8                  -0.14        2.76658
             Al 2  -- Al 20                 -0.14        2.76658
             Al 4  -- Al 18                 -0.14        2.76658
              O 26 -- O 35                  -0.05        2.76884
              O 9  -- O 24                  -0.05        2.76884
              O 18 -- O 38                  -0.05        2.76884
              O 11 -- O 19                  -0.05        2.76884
              O 13 -- O 40                  -0.05        2.76884
              O 28 -- O 33                  -0.05        2.76884
              O 1  -- O 2                   -0.05        2.77758
              O 4  -- O 6                   -0.05        2.77758
              O 5  -- O 6                   -0.05        2.77758
              O 4  -- O 5                   -0.05        2.77758
              O 2  -- O 3                   -0.05        2.77759
              O 1  -- O 3                   -0.05        2.77759
             Al 11 -- Al 29                 -0.21        2.78277
             Al 9  -- Al 31                 -0.21        2.78277
             Al 5  -- Al 31                 -0.21        2.78277
             Al 7  -- Al 29                 -0.21        2.78277
             Al 19 -- Al 29                 -0.21        2.78277
             Al 17 -- Al 31                 -0.21        2.78277
             Al 15 -- Al 25                 -0.20        2.78426
             Al 13 -- Al 27                 -0.20        2.78426
             Al 13 -- Al 23                 -0.20        2.78426
             Al 23 -- Al 25                 -0.20        2.78426
             Al 15 -- Al 21                 -0.20        2.78427
             Al 21 -- Al 27                 -0.20        2.78427
              Li 1 -- Al 11                 -0.39        2.78448
              Li 1 -- Al 9                  -0.39        2.78448
              Li 1 -- Al 17                 -0.39        2.78448
              Li 1 -- Al 5                  -0.39        2.78448
              Li 1 -- Al 7                  -0.39        2.78448
              Li 1 -- Al 19                 -0.39        2.78448
             Al 22 -- Al 32                 -0.20        2.79701
             Al 24 -- Al 30                 -0.20        2.79701
             Al 26 -- Al 32                 -0.20        2.79701
             Al 28 -- Al 30                 -0.20        2.79701
             Al 16 -- Al 30                 -0.20        2.79702
             Al 14 -- Al 32                 -0.20        2.79702
             Al 8  -- Al 14                 -0.20        2.80051
             Al 6  -- Al 16                 -0.20        2.80051
             Al 18 -- Al 24                 -0.20        2.80051
             Al 12 -- Al 26                 -0.20        2.80052
             Al 10 -- Al 28                 -0.20        2.80052
             Al 20 -- Al 22                 -0.20        2.80052
             Al 20 -- Al 26                 -0.20        2.80327
             Al 18 -- Al 28                 -0.20        2.80327
             Al 12 -- Al 14                 -0.20        2.80327
             Al 6  -- Al 24                 -0.20        2.80327
             Al 8  -- Al 22                 -0.20        2.80327
             Al 10 -- Al 16                 -0.20        2.80327
             Al 5  -- Al 19                 -0.16        2.81929
             Al 7  -- Al 17                 -0.16        2.81929
             Al 11 -- Al 17                 -0.16        2.81929
             Al 9  -- Al 19                 -0.16        2.81929
             Al 5  -- Al 11                 -0.16        2.81929
             Al 7  -- Al 9                  -0.16        2.81929
             Al 1  -- Al 23                 -0.18        2.82465
             Al 3  -- Al 25                 -0.18        2.82465
             Al 1  -- Al 27                 -0.18        2.82465
             Al 3  -- Al 13                 -0.18        2.82465
             Al 1  -- Al 15                 -0.18        2.82465
             Al 3  -- Al 21                 -0.18        2.82465
              O 5  -- O 40                  -0.04        2.84468
              O 1  -- O 33                  -0.04        2.84468
              O 4  -- O 24                  -0.04        2.84468
              O 6  -- O 35                  -0.04        2.84468
              O 2  -- O 19                  -0.04        2.84468
              O 3  -- O 38                  -0.04        2.84468
              O 25 -- O 26                  -0.04        2.85345
              O 28 -- O 30                  -0.04        2.85345
              O 13 -- O 15                  -0.04        2.85345
              O 17 -- O 18                  -0.04        2.85345
              O 10 -- O 11                  -0.04        2.85345
              O 8  -- O 9                   -0.04        2.85345
              O 13 -- O 14                  -0.04        2.86031
              O 7  -- O 9                   -0.04        2.86032
              O 26 -- O 27                  -0.04        2.86032
              O 16 -- O 18                  -0.04        2.86032
              O 11 -- O 12                  -0.04        2.86032
              O 28 -- O 29                  -0.04        2.86032
              O 10 -- O 47                  -0.04        2.86657
              O 8  -- O 45                  -0.04        2.86657
              O 30 -- O 46                  -0.04        2.86657
              O 15 -- O 43                  -0.04        2.86657
              O 17 -- O 48                  -0.04        2.86657
              O 25 -- O 44                  -0.04        2.86658
              O 37 -- O 39                  -0.04        2.86999
              O 41 -- O 42                  -0.04        2.86999
              O 31 -- O 32                  -0.04        2.86999
              O 34 -- O 36                  -0.04        2.86999
              O 22 -- O 23                  -0.04        2.87000
              O 20 -- O 21                  -0.04        2.87000
              O 11 -- O 46                  -0.04        2.87382
              O 9  -- O 44                  -0.04        2.87382
              O 13 -- O 45                  -0.04        2.87382
              O 26 -- O 43                  -0.04        2.87382
              O 28 -- O 48                  -0.04        2.87382
              O 18 -- O 47                  -0.04        2.87382
              O 43 -- O 44                  -0.04        2.87995
              O 46 -- O 48                  -0.04        2.87995
              O 47 -- O 48                  -0.04        2.87995
              O 43 -- O 45                  -0.04        2.87995
              O 44 -- O 45                  -0.04        2.87995
              O 46 -- O 47                  -0.04        2.87995
              O 19 -- O 20                  -0.04        2.88167
              O 22 -- O 24                  -0.04        2.88167
              O 35 -- O 36                  -0.04        2.88167
              O 31 -- O 33                  -0.04        2.88167
              O 38 -- O 39                  -0.04        2.88167
              O 40 -- O 41                  -0.04        2.88168
              O 36 -- O 40                  -0.04        2.88180
              O 20 -- O 33                  -0.04        2.88180
              O 24 -- O 41                  -0.04        2.88180
              O 22 -- O 35                  -0.04        2.88180
              O 19 -- O 39                  -0.04        2.88180
              O 31 -- O 38                  -0.04        2.88181
              O 15 -- O 26                  -0.04        2.88220
              O 17 -- O 28                  -0.04        2.88220
              O 8  -- O 13                  -0.04        2.88220
              O 9  -- O 25                  -0.04        2.88220
              O 11 -- O 30                  -0.04        2.88220
              O 10 -- O 18                  -0.04        2.88220
              O 16 -- O 29                  -0.04        2.88764
              O 14 -- O 27                  -0.04        2.88765
              O 12 -- O 29                  -0.04        2.88765
              O 7  -- O 27                  -0.04        2.88765
              O 7  -- O 14                  -0.04        2.88765
              O 12 -- O 16                  -0.04        2.88765
              O 10 -- O 12                  -0.04        2.88960
              O 7  -- O 8                   -0.04        2.88960
              O 25 -- O 27                  -0.04        2.88961
              O 29 -- O 30                  -0.04        2.88961
              O 14 -- O 15                  -0.04        2.88961
              O 16 -- O 17                  -0.04        2.88961
              O 37 -- O 38                  -0.04        2.89453
              O 40 -- O 42                  -0.04        2.89453
              O 23 -- O 24                  -0.04        2.89453
              O 19 -- O 21                  -0.04        2.89453
              O 34 -- O 35                  -0.04        2.89453
              O 32 -- O 33                  -0.04        2.89453
              O 23 -- O 34                  -0.04        2.89785
              O 23 -- O 42                  -0.04        2.89786
              O 21 -- O 32                  -0.04        2.89786
              O 34 -- O 42                  -0.04        2.89786
              O 21 -- O 37                  -0.04        2.89786
              O 32 -- O 37                  -0.04        2.89787
              O 4  -- O 41                  -0.03        2.91768
              O 2  -- O 39                  -0.03        2.91768
              O 5  -- O 36                  -0.03        2.91768
              O 3  -- O 31                  -0.03        2.91768
              O 6  -- O 22                  -0.03        2.91769
              O 1  -- O 20                  -0.03        2.91769
======================================================================


Writing analysis data to al2o3_xc-PBESOL_c-0700_k-2x2x2_sc-2x2x2_site-0_nmr.castep_bin

Writing model to al2o3_xc-PBESOL_c-0700_k-2x2x2_sc-2x2x2_site-0_nmr.check
 
 A BibTeX formatted list of references used in this run has been written to 
 al2o3_xc-PBESOL_c-0700_k-2x2x2_sc-2x2x2_site-0_nmr.bib
 
Initialisation time =     10.71 s
Calculation time    =   7779.00 s
Finalisation time   =      1.09 s
Total time          =   7790.80 s
Peak Memory Use     = 1854220 kB
  
Overall parallel efficiency rating: Good (70%)                                  
  
Data was distributed by:-
G-vector (2-way); efficiency rating: Good (70%)                                 
k-point (4-way); efficiency rating: Excellent (99%)                             
  
Parallel notes:
1) k-points were fully distributed.                                             
