 +-------------------------------------------------+
 |                                                 |
 |      CCC   AA    SSS  TTTTT  EEEEE  PPPP        |
 |     C     A  A  S       T    E      P   P       |
 |     C     AAAA   SS     T    EEE    PPPP        |
 |     C     A  A     S    T    E      P           |
 |      CCC  A  A  SSS     T    EEEEE  P           |
 |                                                 |
 +-------------------------------------------------+
 |                                                 |
 | Welcome to Academic Release CASTEP version 19.11|          
 | Ab Initio Total Energy Program                  |
 |                                                 |
 | Authors:                                        |
 | M. Segall, M. Probert, C. Pickard, P. Hasnip,   |
 | S. Clark, K. Refson, J. R. Yates, M. Payne      |
 |                                                 |
 | Contributors:                                   |
 | P. Lindan, P. Haynes, J. White, V. Milman,      |
 | N. Govind, M. Gibson, P. Tulip, V. Cocula,      |
 | B. Montanari, D. Quigley, M. Glover,            |
 | L. Bernasconi, A. Perlov, M. Plummer,           |
 | E. McNellis, J. Meyer, J. Gale, D. Jochym       |
 | J. Aarons, B. Walker, R. Gillen, D. Jones       |
 | T. Green, I. J. Bush, C. J. Armstrong,          |
 | E. J. Higgins, E. L. Brown, M. S. McFly,        |
 | J. Wilkins, B-C. Shih, P. J. P. Byrne           |
 |                                                 |
 | Copyright (c) 2000 - 2018                       |
 |                                                 |
 |     Distributed under the terms of an           |
 |     Agreement between the United Kingdom        |
 |     Car-Parrinello (UKCP) Consortium,           |
 |     Daresbury Laboratory and Accelrys, Inc.     |
 |                                                 |
 | Please cite                                     |
 |                                                 |
 |     "First principles methods using CASTEP"     |
 |                                                 |
 |         Zeitschrift fuer Kristallographie       |
 |           220(5-6) pp. 567-570 (2005)           |
 |                                                 |
 | S. J. Clark, M. D. Segall, C. J. Pickard,       |
 | P. J. Hasnip, M. J. Probert, K. Refson,         |
 | M. C. Payne                                     |
 |                                                 |
 |       in all publications arising from          |
 |              your use of CASTEP                 |
 |                                                 |
 +-------------------------------------------------+
 |                                                 |
 |              http://www.castep.org              |
 |                                                 |
 +-------------------------------------------------+



 Compiled for linux_x86_64_gfortran7.0 on Fri, 31 Jan 2020 20:20:28 +0100
 from code version e1fe0d666396+ Castep191_branch Thu, 24 Oct 2019 13:54:03 +0100
 Compiler: GNU Fortran 7.4.0; Optimisation: fast
 MATHLIBS: default (LAPACK version 3.7.1)
 FFT Lib : default
 Fundamental constants values: CODATA 2014

 Run started: Fri, 12 Nov 2021 00:48:35 +0100

 Atomic calculation performed for Li: 1s2 2s1

 Converged in 48 iterations to an ae energy of -201.033 eV

   ============================================================                
   | Pseudopotential Report - Date of generation 12-11-2021   |                
   ------------------------------------------------------------                
   | Element: Li Ionic charge:  3.00 Level of theory: PBESOL  |                
   | Atomic Solver: Koelling-Harmon                           |                
   |                                                          |                
   |               Reference Electronic Structure             |                
   |         Orbital         Occupation         Energy        |                
   |            1s              2.000           -1.888        |                
   |            2s              1.000           -0.104        |                
   |                                                          |                
   |                 Pseudopotential Definition               |                
   |        Beta     l      e      Rc     scheme   norm       |                
   |          1      0   -1.888   1.001     qc      0         |                
   |          2      0   -0.104   1.001     qc      0         |                
   |          3      0    0.250   1.001     qc      0         |                
   |         loc     1    0.000   1.001     pn      0         |                
   |                                                          |                
   | Augmentation charge Rinner = 0.699                       |                
   | No partial core correction                               |                
   ------------------------------------------------------------                
   | "1|1.0|14|16|18|10U:20(qc=7)"                            |                
   ------------------------------------------------------------                
   |      Author: Chris J. Pickard, Cambridge University      |                
   ============================================================                

 Atomic calculation performed for O: 1s2 2s2 2p4

 Converged in 57 iterations to an ae energy of -2034.019 eV

   ============================================================                
   | Pseudopotential Report - Date of generation 12-11-2021   |                
   ------------------------------------------------------------                
   | Element: O Ionic charge:  6.00 Level of theory: PBESOL   |                
   | Atomic Solver: Koelling-Harmon                           |                
   |                                                          |                
   |               Reference Electronic Structure             |                
   |         Orbital         Occupation         Energy        |                
   |            2s              2.000           -0.875        |                
   |            2p              4.000           -0.330        |                
   |                                                          |                
   |                 Pseudopotential Definition               |                
   |        Beta     l      e      Rc     scheme   norm       |                
   |          1      0   -0.875   1.100     qc      0         |                
   |          2      0    0.250   1.100     qc      0         |                
   |          3      1   -0.330   1.100     qc      0         |                
   |          4      1    0.250   1.100     qc      0         |                
   |         loc     2    0.000   1.100     pn      0         |                
   |                                                          |                
   | Augmentation charge Rinner = 0.769                       |                
   | Partial core correction Rc = 0.769                       |                
   ------------------------------------------------------------                
   | "2|1.1|17|20|23|20:21(qc=8)"                             |                
   ------------------------------------------------------------                
   |      Author: Chris J. Pickard, Cambridge University      |                
   ============================================================                

 Atomic calculation performed for Al: 1s2 2s2 2p6 3s2 3p1

 Converged in 55 iterations to an ae energy of -6590.489 eV

   ============================================================                
   | Pseudopotential Report - Date of generation 12-11-2021   |                
   ------------------------------------------------------------                
   | Element: Al Ionic charge:  3.00 Level of theory: PBESOL  |                
   | Atomic Solver: Koelling-Harmon                           |                
   |                                                          |                
   |               Reference Electronic Structure             |                
   |         Orbital         Occupation         Energy        |                
   |            3s              2.000           -0.284        |                
   |            3p              1.000           -0.099        |                
   |                                                          |                
   |                 Pseudopotential Definition               |                
   |        Beta     l      e      Rc     scheme   norm       |                
   |          1      0   -0.284   2.192     qc      0         |                
   |          2      0    0.250   2.192     qc      0         |                
   |          3      1   -0.099   2.192     qc      0         |                
   |          4      1    0.250   2.192     qc      0         |                
   |          5      2    0.000   2.000     qc      0         |                
   |          6      2    0.250   2.000     qc      0         |                
   |         loc     3    0.000   2.192     pn      0         |                
   |                                                          |                
   | Augmentation charge Rinner = 1.398                       |                
   | Partial core correction Rc = 1.398                       |                
   ------------------------------------------------------------                
   | "3|2.2|2.2|1.4|4|5|5|30:31:32U2U2"                       |                
   ------------------------------------------------------------                
   |      Author: Chris J. Pickard, Cambridge University      |                
   ============================================================                

 Pseudo atomic calculation performed for Li 1s2 2s1

 Converged in 16 iterations to a total energy of -198.8771 eV

 Pseudo atomic calculation performed for O 2s2 2p4

 Converged in 14 iterations to a total energy of -431.0588 eV

 Pseudo atomic calculation performed for Al 3s2 3p1

 Converged in 11 iterations to a total energy of -105.9169 eV
 Calculation parallelised over 8 processes.
 Data is distributed by G-vector(2-way) and k-point(4-way)

 ************************************ Title ************************************
 

 ***************************** General Parameters ******************************
  
 output verbosity                               : normal  (1)
 write checkpoint data to                       : al2o3_xc-PBESOL_c-0700_k-2x2x2_sc-2x2x2_site-0_geom.check
 type of calculation                            : geometry optimization
 stress calculation                             : off
 density difference calculation                 : off
 electron localisation func (ELF) calculation   : off
 Hirshfeld analysis                             : off
 unlimited duration calculation
 timing information                             : on
 memory usage estimate                          : on
 write extra output files                       : on
 write final potential to formatted file        : off
 write final density to formatted file          : off
 write structure in CIF formatted file          : on
 write structure in CELL formatted file         : on
 write BibTeX reference list                    : on
 write OTFG pseudopotential files               : on
 write electrostatic potential file             : on
 write bands file                               : on
 checkpoint writing                             : both castep_bin and check files
  
 output         length unit                     : A
 output           mass unit                     : amu
 output           time unit                     : ps
 output         charge unit                     : e
 output           spin unit                     : hbar/2
 output         energy unit                     : eV
 output          force unit                     : eV/A
 output       velocity unit                     : A/ps
 output       pressure unit                     : GPa
 output     inv_length unit                     : 1/A
 output      frequency unit                     : cm-1
 output force constant unit                     : eV/A**2
 output         volume unit                     : A**3
 output   IR intensity unit                     : (D/A)**2/amu
 output         dipole unit                     : D
 output         efield unit                     : eV/A/e
 output        entropy unit                     : J/mol/K
  
 wavefunctions paging                           : none
 random number generator seed                   : randomised (4835171)
 data distribution                              : optimal for this architecture
 optimization strategy                          : maximize speed(+++)

 *********************** Exchange-Correlation Parameters ***********************
  
 using functional                               : PBE for solids (2008)
 relativistic treatment                         : Koelling-Harmon
 DFT+D: Semi-empirical dispersion correction    : off

 ************************* Pseudopotential Parameters **************************
  
 pseudopotential representation                 : reciprocal space
 <beta|phi> representation                      : reciprocal space
 spin-orbit coupling                            : off

 **************************** Basis Set Parameters *****************************
  
 plane wave basis set cut-off                   :   700.0000   eV
 size of standard grid                          :     1.7500
 size of   fine   gmax                          :    23.7206   1/A
 finite basis set correction                    : none

 **************************** Electronic Parameters ****************************
  
 number of  electrons                           :  386.0    
 net charge of system                           : +1.000    
 treating system as non-spin-polarized
 number of bands                                :        232

 ********************* Electronic Minimization Parameters **********************
  
 Method: Treating system as metallic with density mixing treatment of electrons,
         and number of  SD  steps               :          1
         and number of  CG  steps               :          4
  
 total energy / atom convergence tol.           : 0.1000E-04   eV
 eigen-energy convergence tolerance             : 0.1000E-05   eV
 max force / atom convergence tol.              : ignored
 convergence tolerance window                   :          3   cycles
 max. number of SCF cycles                      :         30
 number of fixed-spin iterations                :         10
 smearing scheme                                : Gaussian
 smearing width                                 : 0.2000       eV
 Fermi energy convergence tolerance             : 0.2721E-13   eV
 periodic dipole correction                     : NONE

 ************************** Density Mixing Parameters **************************
  
 density-mixing scheme                          : Broyden
 max. length of mixing history                  :         20
 charge density mixing amplitude                : 0.8000    
 cut-off energy for mixing                      :  700.0       eV

 *********************** Population Analysis Parameters ************************
  
 Population analysis with cutoff                :  3.000       A
 Population analysis output                     : summary and pdos components

 ********************** Geometry Optimization Parameters ***********************
  
 optimization method                            : LBFGS
 max. no. of LBFGS updates                      : unbounded
 variable cell method                           : fixed basis quality
 max. number of steps                           :        150
 estimated bulk modulus                         :  500.0       GPa
 estimated <frequency>                          :  1668.       cm-1
 geom line minimiser                            : on
 with line minimiser tolerance                  :     0.4000
 total energy convergence tolerance             : 0.1000E-04   eV/atom
        max ionic |force| tolerance             : 0.1000E-01   eV/A
 max ionic |displacement| tolerance             : 0.1000E-02   A
   max |stress component| tolerance             : 0.1000       GPa
 convergence tolerance window                   :          2   steps
 backup results every                           :          5   steps
 write geom trajectory file                     : on

 *******************************************************************************
  

                           -------------------------------
                                      Unit Cell
                           -------------------------------
        Real Lattice(A)                      Reciprocal Lattice(1/A)
     4.7723660     2.7553310     8.6751080        0.658288371   0.380062491   0.241425733
    -4.7723610     2.7553250     8.6751070       -0.658288899   0.380063208   0.241425885
    -0.0000020    -5.5106530     8.6751060        0.000000453  -0.760125830   0.241425940

                       Lattice parameters(A)       Cell Angles
                    a =     10.277394          alpha =   55.337047
                    b =     10.277389          beta  =   55.337094
                    c =     10.277391          gamma =   55.337041

                       Current cell volume =           684.435857       A**3
                                   density =             2.393682   AMU/A**3
                                           =             3.974802     g/cm^3

                           -------------------------------
                                     Cell Contents
                           -------------------------------
                         Total number of ions in cell =   81
                      Total number of species in cell =    3
                        Max number of any one species =   48

            xxxxxxxxxxxxxxxxxxxxxxxxxxxxxxxxxxxxxxxxxxxxxxxxxxxxxxxxxxxx
            x  Element    Atom        Fractional coordinates of atoms  x
            x            Number           u          v          w      x
            x----------------------------------------------------------x
            x  Li           1         0.250000   0.250000   0.250000   x 
            x  O            1         0.278051   0.471948   0.125000   x 
            x  O            2         0.471948   0.125000   0.278052   x 
            x  O            3         0.125000   0.278051   0.471949   x 
            x  O            4         0.028051   0.375000   0.221948   x 
            x  O            5         0.375000   0.221949   0.028051   x 
            x  O            6         0.221949   0.028052   0.375000   x 
            x  O            7         0.278052   0.471948   0.625000   x 
            x  O            8         0.471948   0.125000   0.778052   x 
            x  O            9         0.125000   0.278052   0.971949   x 
            x  O           10         0.028051   0.375000   0.721949   x 
            x  O           11         0.375000   0.221949   0.528051   x 
            x  O           12         0.221949   0.028051   0.875000   x 
            x  O           13         0.278051   0.971948   0.125000   x 
            x  O           14         0.471949   0.625000   0.278052   x 
            x  O           15         0.125000   0.778051   0.471949   x 
            x  O           16         0.028052   0.875000   0.221949   x 
            x  O           17         0.375000   0.721949   0.028051   x 
            x  O           18         0.221948   0.528052   0.375000   x 
            x  O           19         0.278051   0.971948   0.625000   x 
            x  O           20         0.471949   0.625000   0.778052   x 
            x  O           21         0.125000   0.778052   0.971949   x 
            x  O           22         0.028051   0.875000   0.721949   x 
            x  O           23         0.375000   0.721949   0.528051   x 
            x  O           24         0.221948   0.528052   0.875000   x 
            x  O           25         0.778052   0.471948   0.125000   x 
            x  O           26         0.971948   0.125000   0.278052   x 
            x  O           27         0.625000   0.278051   0.471949   x 
            x  O           28         0.528051   0.375000   0.221949   x 
            x  O           29         0.875000   0.221949   0.028051   x 
            x  O           30         0.721949   0.028051   0.375000   x 
            x  O           31         0.778051   0.471948   0.625000   x 
            x  O           32         0.971948   0.125000   0.778052   x 
            x  O           33         0.625000   0.278052   0.971949   x 
            x  O           34         0.528051   0.375000   0.721949   x 
            x  O           35         0.875000   0.221949   0.528051   x 
            x  O           36         0.721948   0.028051   0.875000   x 
            x  O           37         0.778051   0.971948   0.125000   x 
            x  O           38         0.971948   0.625000   0.278052   x 
            x  O           39         0.625000   0.778052   0.471949   x 
            x  O           40         0.528051   0.875000   0.221949   x 
            x  O           41         0.875000   0.721949   0.028051   x 
            x  O           42         0.721948   0.528051   0.375000   x 
            x  O           43         0.778051   0.971948   0.625000   x 
            x  O           44         0.971948   0.625000   0.778052   x 
            x  O           45         0.625000   0.778051   0.971949   x 
            x  O           46         0.528052   0.875000   0.721949   x 
            x  O           47         0.875000   0.721949   0.528051   x 
            x  O           48         0.721948   0.528052   0.875000   x 
            x  Al           1         0.073961   0.073961   0.073961   x 
            x  Al           2         0.323961   0.323961   0.323961   x 
            x  Al           3         0.426039   0.426039   0.426039   x 
            x  Al           4         0.176039   0.176039   0.176039   x 
            x  Al           5         0.073961   0.073961   0.573961   x 
            x  Al           6         0.323961   0.323961   0.823961   x 
            x  Al           7         0.426039   0.426039   0.926039   x 
            x  Al           8         0.176039   0.176039   0.676039   x 
            x  Al           9         0.073961   0.573961   0.073961   x 
            x  Al          10         0.323961   0.823961   0.323961   x 
            x  Al          11         0.426039   0.926039   0.426039   x 
            x  Al          12         0.176039   0.676039   0.176039   x 
            x  Al          13         0.073961   0.573961   0.573961   x 
            x  Al          14         0.323961   0.823961   0.823961   x 
            x  Al          15         0.426039   0.926039   0.926039   x 
            x  Al          16         0.176039   0.676039   0.676039   x 
            x  Al          17         0.573961   0.073961   0.073961   x 
            x  Al          18         0.823961   0.323961   0.323961   x 
            x  Al          19         0.926039   0.426039   0.426039   x 
            x  Al          20         0.676039   0.176039   0.176039   x 
            x  Al          21         0.573961   0.073961   0.573961   x 
            x  Al          22         0.823961   0.323961   0.823961   x 
            x  Al          23         0.926039   0.426039   0.926039   x 
            x  Al          24         0.676039   0.176039   0.676039   x 
            x  Al          25         0.573961   0.573961   0.073961   x 
            x  Al          26         0.823961   0.823961   0.323961   x 
            x  Al          27         0.926039   0.926039   0.426039   x 
            x  Al          28         0.676039   0.676039   0.176039   x 
            x  Al          29         0.573961   0.573961   0.573961   x 
            x  Al          30         0.823961   0.823961   0.823961   x 
            x  Al          31         0.926039   0.926039   0.926039   x 
            x  Al          32         0.676039   0.676039   0.676039   x 
            xxxxxxxxxxxxxxxxxxxxxxxxxxxxxxxxxxxxxxxxxxxxxxxxxxxxxxxxxxxx


                         No user defined ionic velocities

                           -------------------------------
                                   Details of Species
                           -------------------------------

                               Mass of species in AMU
                                    Li    6.9410000
                                    O   15.9994000
                                    Al   26.9815400

                          Electric Quadrupole Moment (Barn)
                                    Li   -0.0401000 Isotope  7
                                    O   -0.0255800 Isotope 17
                                    Al    0.1466000 Isotope 27

                          Files used for pseudopotentials:
                                    Li 1|1.0|14|16|18|10U:20(qc=7)
                                    O 2|1.1|17|20|23|20:21(qc=8)
                                    Al 3|2.2|2.2|1.4|4|5|5|30:31:32U2U2

                           -------------------------------
                              k-Points For BZ Sampling
                           -------------------------------
                       MP grid size for SCF calculation is  2  2  2
                            with an offset of   0.000  0.000  0.000
                       Number of kpoints used =             4

                           -------------------------------
                               Symmetry and Constraints
                           -------------------------------

                      Maximum deviation from symmetry =  0.00000         ANG

                      Number of symmetry operations   =           1
                      Number of ionic constraints     =           3
                      Point group of crystal =     1: C1, 1, 1
                      Space group of crystal =   148: R-3, -R 3

             Set iprint > 1 for details on symmetry rotations/translations

                         Centre of mass is constrained
             Set iprint > 1 for details of linear ionic constraints

                         Number of cell constraints= 6
                         Cell constraints are:  0 0 0 0 0 0

                         External pressure/stress (GPa)
                          0.00000   0.00000   0.00000
                                    0.00000   0.00000
                                              0.00000
  
+---------------- MEMORY AND SCRATCH DISK ESTIMATES PER PROCESS --------------+
|                                                     Memory          Disk    |
| Baseline code, static data and system overhead      200.0 MB         0.0 MB |
| BLAS internal memory storage                          0.0 MB         0.0 MB |
| Model and support data                              775.6 MB         0.0 MB |
| Electronic energy minimisation requirements         308.7 MB         0.0 MB |
| Force calculation requirements                       37.8 MB         0.0 MB |
|                                               ----------------------------- |
| Approx. total storage required per process         1284.3 MB         0.0 MB |
|                                                                             |
| Requirements will fluctuate during execution and may exceed these estimates |
+-----------------------------------------------------------------------------+
Calculating total energy with cut-off of  700.000 eV.
------------------------------------------------------------------------ <-- SCF
SCF loop      Energy           Fermi           Energy gain       Timer   <-- SCF
                               energy          per atom          (sec)   <-- SCF
------------------------------------------------------------------------ <-- SCF
Initial  -1.81785653E+004  0.00000000E+000                        19.55  <-- SCF
      1  -2.29190935E+004  1.07245605E+001   5.85250395E+001      68.88  <-- SCF
      2  -2.49091479E+004  8.79670135E+000   2.45685726E+001     108.49  <-- SCF
      3  -2.49769357E+004  8.84591125E+000   8.36885984E-001     148.45  <-- SCF
      4  -2.49441463E+004  1.04508513E+001  -4.04807590E-001     205.97  <-- SCF
      5  -2.49191147E+004  9.82242195E+000  -3.09031744E-001     262.04  <-- SCF
      6  -2.49191876E+004  9.87588865E+000   9.00141808E-004     321.74  <-- SCF
      7  -2.49192047E+004  9.90002908E+000   2.10944254E-004     375.51  <-- SCF
      8  -2.49192029E+004  9.90460938E+000  -2.22744934E-005     430.47  <-- SCF
      9  -2.49192022E+004  9.90440407E+000  -9.11297922E-006     471.18  <-- SCF
     10  -2.49192022E+004  9.90470304E+000   4.60139933E-007     506.70  <-- SCF
     11  -2.49192022E+004  9.90478777E+000   1.92297398E-007     540.55  <-- SCF
------------------------------------------------------------------------ <-- SCF
 
Final energy, E             =  -24919.20220708     eV
Final free energy (E-TS)    =  -24919.20220708     eV
(energies not corrected for finite basis set)
 
NB est. 0K energy (E-0.5TS)      =  -24919.20220708     eV
 

Writing analysis data to al2o3_xc-PBESOL_c-0700_k-2x2x2_sc-2x2x2_site-0_geom.castep_bin

Writing model to al2o3_xc-PBESOL_c-0700_k-2x2x2_sc-2x2x2_site-0_geom.check
 
+---------------- MEMORY AND SCRATCH DISK ESTIMATES PER PROCESS --------------+
|                                                     Memory          Disk    |
| Model and support data                              774.6 MB         0.0 MB |
| Electronic energy minimisation requirements         308.7 MB         0.0 MB |
| Geometry minimisation requirements                  365.7 MB         0.0 MB |
|                                               ----------------------------- |
| Approx. total storage required per process         1449.0 MB         0.0 MB |
|                                                                             |
| Requirements will fluctuate during execution and may exceed these estimates |
+-----------------------------------------------------------------------------+
 

 ************************************** Forces **************************************
 *                                                                                  *
 *                           Cartesian components (eV/A)                            *
 * -------------------------------------------------------------------------------- *
 *                         x                    y                    z              *
 *                                                                                  *
 * Li              1     -0.00001             -0.00001              0.00003         *
 * O               1      0.76067             -0.87245             -0.67068         *
 * O               2     -1.13647             -0.22240             -0.67094         *
 * O               3      0.37554              1.09537             -0.67099         *
 * O               4      1.13616              0.22250              0.67083         *
 * O               5     -0.37534             -1.09512              0.67072         *
 * O               6     -0.76062              0.87250              0.67082         *
 * O               7     -0.02116             -0.02478              0.03065         *
 * O               8     -0.12949             -0.09130              0.18955         *
 * O               9      0.14805             -0.10463              0.38461         *
 * O              10      0.12960              0.09138             -0.18962         *
 * O              11     -0.14801              0.10467             -0.38455         *
 * O              12      0.02129              0.02494             -0.03065         *
 * O              13     -0.16461             -0.07595              0.38475         *
 * O              14     -0.01082              0.03084              0.03062         *
 * O              15     -0.01422              0.15781              0.18969         *
 * O              16      0.01091             -0.03077             -0.03077         *
 * O              17      0.01447             -0.15791             -0.18963         *
 * O              18      0.16478              0.07597             -0.38468         *
 * O              19     -0.29030              0.41408             -0.24748         *
 * O              20      0.01324             -0.15445             -0.08850         *
 * O              21      0.26644             -0.19829             -0.03519         *
 * O              22     -0.01324              0.15446              0.08864         *
 * O              23     -0.26630              0.19824              0.03510         *
 * O              24      0.29012             -0.41416              0.24770         *
 * O              25      0.14374             -0.06657              0.18955         *
 * O              26      0.01654              0.18050              0.38460         *
 * O              27      0.03199             -0.00605              0.03065         *
 * O              28     -0.01665             -0.18053             -0.38446         *
 * O              29     -0.03216              0.00587             -0.03070         *
 * O              30     -0.14392              0.06647             -0.18968         *
 * O              31      0.12701              0.08854             -0.08858         *
 * O              32      0.03862              0.32985             -0.03506         *
 * O              33     -0.21353             -0.45845             -0.24750         *
 * O              34     -0.03866             -0.32977              0.03508         *
 * O              35      0.21365              0.45835              0.24747         *
 * O              36     -0.12715             -0.08877              0.08857         *
 * O              37     -0.30488             -0.13147             -0.03510         *
 * O              38      0.50375              0.04431             -0.24769         *
 * O              39     -0.14035              0.06573             -0.08869         *
 * O              40     -0.50373             -0.04427              0.24754         *
 * O              41      0.14037             -0.06585              0.08858         *
 * O              42      0.30481              0.13147              0.03517         *
 * O              43     -0.06221              0.04878              0.05888         *
 * O              44      0.07338              0.02936              0.05883         *
 * O              45     -0.01126             -0.07823              0.05882         *
 * O              46     -0.07350             -0.02940             -0.05875         *
 * O              47      0.01125              0.07818             -0.05879         *
 * O              48      0.06214             -0.04887             -0.05877         *
 * Al              1     -0.00007             -0.00002             -0.21800         *
 * Al              2     -0.00008              0.00009              5.70535         *
 * Al              3     -0.00001              0.00006              0.21807         *
 * Al              4     -0.00005             -0.00003             -5.70531         *
 * Al              5     -0.04624             -1.52435             -0.12816         *
 * Al              6     -0.18641              0.56545             -0.63126         *
 * Al              7      0.04614              1.52437              0.12812         *
 * Al              8      0.18635             -0.56548              0.63126         *
 * Al              9     -1.29701              0.80216             -0.12811         *
 * Al             10      0.58291             -0.12131             -0.63129         *
 * Al             11      1.29697             -0.80219              0.12802         *
 * Al             12     -0.58281              0.12127              0.63126         *
 * Al             13     -0.13322             -0.11133              0.09915         *
 * Al             14      0.06388              0.01257              0.22613         *
 * Al             15      0.13322              0.11138             -0.09918         *
 * Al             16     -0.06372             -0.01254             -0.22606         *
 * Al             17      1.34330              0.72219             -0.12812         *
 * Al             18     -0.39635             -0.44418             -0.63127         *
 * Al             19     -1.34325             -0.72207              0.12809         *
 * Al             20      0.39650              0.44420              0.63128         *
 * Al             21      0.16310             -0.05977              0.09914         *
 * Al             22     -0.04270              0.04895              0.22610         *
 * Al             23     -0.16302              0.05974             -0.09918         *
 * Al             24      0.04274             -0.04893             -0.22606         *
 * Al             25     -0.02985              0.17103              0.09907         *
 * Al             26     -0.02094             -0.06139              0.22604         *
 * Al             27      0.02980             -0.17096             -0.09907         *
 * Al             28      0.02100              0.06152             -0.22604         *
 * Al             29      0.00001             -0.00006              0.04795         *
 * Al             30      0.00002             -0.00001             -0.20693         *
 * Al             31     -0.00008             -0.00002             -0.04799         *
 * Al             32     -0.00004             -0.00005              0.20704         *
 *                                                                                  *
 ************************************************************************************
 LBFGS: finished iteration     0 with enthalpy= -2.49192022E+004 eV
  
 +-----------+-----------------+-----------------+------------+-----+ <-- LBFGS
 | Parameter |      value      |    tolerance    |    units   | OK? | <-- LBFGS
 +-----------+-----------------+-----------------+------------+-----+ <-- LBFGS
 |  dE/ion   |   0.000000E+000 |   1.000000E-005 |         eV | No  | <-- LBFGS
 |  |F|max   |   5.705350E+000 |   1.000000E-002 |       eV/A | No  | <-- LBFGS
 |  |dR|max  |   0.000000E+000 |   1.000000E-003 |          A | No  | <-- LBFGS
 +-----------+-----------------+-----------------+------------+-----+ <-- LBFGS
  

================================================================================
 Starting LBFGS iteration          1 ...
================================================================================
  
 +------------+-------------+-------------+-----------------+ <-- min LBFGS
 |    Step    |   lambda    |   F.delta'  |    enthalpy     | <-- min LBFGS
 +------------+-------------+-------------+-----------------+ <-- min LBFGS
 |  previous  |    0.000000 |    3.821454 |   -24919.202207 | <-- min LBFGS
 +------------+-------------+-------------+-----------------+ <-- min LBFGS
  

--------------------------------------------------------------------------------
 LBFGS: starting iteration         1 with trial guess (lambda=  1.000000)
--------------------------------------------------------------------------------

                           -------------------------------
                                     Cell Contents
                           -------------------------------

            xxxxxxxxxxxxxxxxxxxxxxxxxxxxxxxxxxxxxxxxxxxxxxxxxxxxxxxxxxxxxxxxx
            x  Element         Atom        Fractional coordinates of atoms  x
            x                 Number           u          v          w      x
            x---------------------------------------------------------------x
            x  Li                1         0.250000   0.250000   0.250000   x
            x  O                 1         0.278057   0.471184   0.125386   x
            x  O                 2         0.471183   0.125386   0.278057   x
            x  O                 3         0.125386   0.278057   0.471183   x
            x  O                 4         0.028816   0.374614   0.221943   x
            x  O                 5         0.374614   0.221943   0.028816   x
            x  O                 6         0.221943   0.028816   0.374614   x
            x  O                 7         0.278039   0.471958   0.625020   x
            x  O                 8         0.471891   0.125074   0.778140   x
            x  O                 9         0.125116   0.278017   0.972081   x
            x  O                10         0.028109   0.374926   0.721860   x
            x  O                11         0.374884   0.221983   0.527918   x
            x  O                12         0.221961   0.028042   0.874980   x
            x  O                13         0.278017   0.972081   0.125116   x
            x  O                14         0.471958   0.625020   0.278039   x
            x  O                15         0.125074   0.778140   0.471892   x
            x  O                16         0.028042   0.874980   0.221961   x
            x  O                17         0.374926   0.721860   0.028108   x
            x  O                18         0.221983   0.527919   0.374884   x
            x  O                19         0.277980   0.972171   0.624712   x
            x  O                20         0.471894   0.624932   0.778125   x
            x  O                21         0.125070   0.777852   0.972058   x
            x  O                22         0.028106   0.875068   0.721875   x
            x  O                23         0.374930   0.722148   0.527942   x
            x  O                24         0.222020   0.527830   0.875288   x
            x  O                25         0.778140   0.471891   0.125074   x
            x  O                26         0.972081   0.125116   0.278017   x
            x  O                27         0.625020   0.278039   0.471958   x
            x  O                28         0.527919   0.374884   0.221983   x
            x  O                29         0.874980   0.221961   0.028042   x
            x  O                30         0.721860   0.028109   0.374926   x
            x  O                31         0.778125   0.471894   0.624932   x
            x  O                32         0.972058   0.125070   0.777852   x
            x  O                33         0.624712   0.277980   0.972171   x
            x  O                34         0.527942   0.374930   0.722148   x
            x  O                35         0.875288   0.222021   0.527829   x
            x  O                36         0.721875   0.028106   0.875068   x
            x  O                37         0.777852   0.972058   0.125070   x
            x  O                38         0.972171   0.624712   0.277980   x
            x  O                39         0.624932   0.778125   0.471894   x
            x  O                40         0.527829   0.875288   0.222020   x
            x  O                41         0.875068   0.721875   0.028106   x
            x  O                42         0.722148   0.527942   0.374930   x
            x  O                43         0.778045   0.972005   0.624983   x
            x  O                44         0.972005   0.624982   0.778045   x
            x  O                45         0.624982   0.778045   0.972005   x
            x  O                46         0.527995   0.875018   0.721955   x
            x  O                47         0.875018   0.721955   0.527994   x
            x  O                48         0.721955   0.527995   0.875018   x
            x  Al                1         0.073920   0.073921   0.073921   x
            x  Al                2         0.325021   0.325021   0.325021   x
            x  Al                3         0.426079   0.426080   0.426080   x
            x  Al                4         0.174979   0.174979   0.174980   x
            x  Al                5         0.073468   0.073515   0.574829   x
            x  Al                6         0.323915   0.324103   0.823513   x
            x  Al                7         0.426532   0.426485   0.925172   x
            x  Al                8         0.176085   0.175897   0.676487   x
            x  Al                9         0.073515   0.574828   0.073468   x
            x  Al               10         0.324104   0.823513   0.323915   x
            x  Al               11         0.426485   0.925171   0.426532   x
            x  Al               12         0.175897   0.676487   0.176085   x
            x  Al               13         0.073879   0.574014   0.574045   x
            x  Al               14         0.324039   0.823974   0.823996   x
            x  Al               15         0.426121   0.925986   0.925956   x
            x  Al               16         0.175961   0.676026   0.676004   x
            x  Al               17         0.574829   0.073468   0.073515   x
            x  Al               18         0.823513   0.323915   0.324104   x
            x  Al               19         0.925171   0.426532   0.426485   x
            x  Al               20         0.676487   0.176085   0.175897   x
            x  Al               21         0.574045   0.073879   0.574014   x
            x  Al               22         0.823996   0.324039   0.823974   x
            x  Al               23         0.925955   0.426121   0.925986   x
            x  Al               24         0.676004   0.175961   0.676026   x
            x  Al               25         0.574014   0.574044   0.073879   x
            x  Al               26         0.823974   0.823996   0.324039   x
            x  Al               27         0.925986   0.925955   0.426121   x
            x  Al               28         0.676026   0.676004   0.175961   x
            x  Al               29         0.573970   0.573970   0.573970   x
            x  Al               30         0.823923   0.823923   0.823923   x
            x  Al               31         0.926030   0.926030   0.926030   x
            x  Al               32         0.676077   0.676077   0.676078   x
            xxxxxxxxxxxxxxxxxxxxxxxxxxxxxxxxxxxxxxxxxxxxxxxxxxxxxxxxxxxxxxxxx


------------------------------------------------------------------------ <-- SCF
SCF loop      Energy           Fermi           Energy gain       Timer   <-- SCF
                               energy          per atom          (sec)   <-- SCF
------------------------------------------------------------------------ <-- SCF
Initial  -2.49197706E+004  0.00000000E+000                       588.56  <-- SCF
      1  -2.49196410E+004  9.91057431E+000  -1.59951611E-003     627.66  <-- SCF
      2  -2.49196465E+004  9.91055560E+000   6.84019483E-005     682.67  <-- SCF
      3  -2.49196383E+004  9.91541719E+000  -1.02185111E-004     727.48  <-- SCF
      4  -2.49196359E+004  9.91793253E+000  -2.86221040E-005     772.10  <-- SCF
      5  -2.49196356E+004  9.91958190E+000  -4.58908460E-006     811.71  <-- SCF
      6  -2.49196355E+004  9.91965466E+000  -6.07531587E-007     844.74  <-- SCF
------------------------------------------------------------------------ <-- SCF
 
Final energy, E             =  -24919.63552207     eV
Final free energy (E-TS)    =  -24919.63552207     eV
(energies not corrected for finite basis set)
 
NB est. 0K energy (E-0.5TS)      =  -24919.63552207     eV
 

 ************************************** Forces **************************************
 *                                                                                  *
 *                           Cartesian components (eV/A)                            *
 * -------------------------------------------------------------------------------- *
 *                         x                    y                    z              *
 *                                                                                  *
 * Li              1      0.00000              0.00000              0.00002         *
 * O               1      0.66411             -0.74888             -0.50726         *
 * O               2     -0.98060             -0.20069             -0.50725         *
 * O               3      0.31644              0.94959             -0.50732         *
 * O               4      0.98063              0.20068              0.50721         *
 * O               5     -0.31648             -0.94968              0.50730         *
 * O               6     -0.66417              0.74887              0.50730         *
 * O               7     -0.02609              0.00567              0.00222         *
 * O               8     -0.10490             -0.07558              0.14530         *
 * O               9      0.09900             -0.07758              0.24443         *
 * O              10      0.10486              0.07555             -0.14526         *
 * O              11     -0.09898              0.07752             -0.24451         *
 * O              12      0.02603             -0.00563             -0.00223         *
 * O              13     -0.11677             -0.04697              0.24435         *
 * O              14      0.01789              0.01973              0.00219         *
 * O              15     -0.01306              0.12860              0.14531         *
 * O              16     -0.01789             -0.01973             -0.00218         *
 * O              17      0.01308             -0.12865             -0.14531         *
 * O              18      0.11675              0.04691             -0.24437         *
 * O              19     -0.21517              0.27989             -0.16967         *
 * O              20     -0.00318             -0.07223             -0.05534         *
 * O              21      0.20531             -0.14915             -0.02672         *
 * O              22      0.00316              0.07232              0.05539         *
 * O              23     -0.20533              0.14908              0.02680         *
 * O              24      0.21521             -0.27984              0.16968         *
 * O              25      0.11784             -0.05300              0.14527         *
 * O              26      0.01776              0.12460              0.24430         *
 * O              27      0.00816             -0.02536              0.00220         *
 * O              28     -0.01769             -0.12456             -0.24439         *
 * O              29     -0.00813              0.02531             -0.00219         *
 * O              30     -0.11786              0.05300             -0.14526         *
 * O              31      0.06419              0.03344             -0.05535         *
 * O              32      0.02649              0.25247             -0.02679         *
 * O              33     -0.13473             -0.32629             -0.16976         *
 * O              34     -0.02648             -0.25244              0.02679         *
 * O              35      0.13475              0.32619              0.16973         *
 * O              36     -0.06416             -0.03335              0.05532         *
 * O              37     -0.23186             -0.10329             -0.02679         *
 * O              38      0.34998              0.04646             -0.16964         *
 * O              39     -0.06105              0.03892             -0.05540         *
 * O              40     -0.34991             -0.04648              0.16967         *
 * O              41      0.06099             -0.03888              0.05526         *
 * O              42      0.23180              0.10330              0.02681         *
 * O              43     -0.05920              0.04921              0.05486         *
 * O              44      0.07221              0.02674              0.05488         *
 * O              45     -0.01299             -0.07589              0.05489         *
 * O              46     -0.07222             -0.02665             -0.05486         *
 * O              47      0.01305              0.07580             -0.05489         *
 * O              48      0.05926             -0.04920             -0.05489         *
 * Al              1      0.00001             -0.00000             -0.29617         *
 * Al              2      0.00002             -0.00001              4.71117         *
 * Al              3      0.00000              0.00003              0.29619         *
 * Al              4     -0.00001              0.00001             -4.71119         *
 * Al              5     -0.03607             -1.13229             -0.08253         *
 * Al              6     -0.14302              0.42823             -0.41530         *
 * Al              7      0.03606              1.13229              0.08253         *
 * Al              8      0.14303             -0.42822              0.41531         *
 * Al              9     -0.96255              0.59741             -0.08256         *
 * Al             10      0.44240             -0.09028             -0.41533         *
 * Al             11      0.96251             -0.59738              0.08258         *
 * Al             12     -0.44236              0.09029              0.41532         *
 * Al             13     -0.11319             -0.09471              0.06952         *
 * Al             14      0.03958              0.02724              0.13548         *
 * Al             15      0.11319              0.09473             -0.06953         *
 * Al             16     -0.03955             -0.02723             -0.13543         *
 * Al             17      0.99863              0.53488             -0.08254         *
 * Al             18     -0.29934             -0.33799             -0.41533         *
 * Al             19     -0.99862             -0.53487              0.08258         *
 * Al             20      0.29932              0.33797              0.41531         *
 * Al             21      0.13862             -0.05069              0.06951         *
 * Al             22     -0.04336              0.02065              0.13547         *
 * Al             23     -0.13863              0.05068             -0.06951         *
 * Al             24      0.04336             -0.02065             -0.13546         *
 * Al             25     -0.02544              0.14538              0.06953         *
 * Al             26      0.00380             -0.04787              0.13543         *
 * Al             27      0.02540             -0.14536             -0.06949         *
 * Al             28     -0.00380              0.04790             -0.13545         *
 * Al             29     -0.00002              0.00000              0.01630         *
 * Al             30      0.00002             -0.00002             -0.15720         *
 * Al             31     -0.00001              0.00001             -0.01630         *
 * Al             32     -0.00002              0.00001              0.15723         *
 *                                                                                  *
 ************************************************************************************
  
 +------------+-------------+-------------+-----------------+ <-- min LBFGS
 |    Step    |   lambda    |   F.delta'  |    enthalpy     | <-- min LBFGS
 +------------+-------------+-------------+-----------------+ <-- min LBFGS
 |  previous  |    0.000000 |    3.821454 |   -24919.202207 | <-- min LBFGS
 | trial step |    1.000000 |    3.071451 |   -24919.635522 | <-- min LBFGS
 +------------+-------------+-------------+-----------------+ <-- min LBFGS
  

--------------------------------------------------------------------------------
 LBFGS: improving iteration         1 with line minimization (lambda=  5.095249)
--------------------------------------------------------------------------------

                           -------------------------------
                                     Cell Contents
                           -------------------------------

            xxxxxxxxxxxxxxxxxxxxxxxxxxxxxxxxxxxxxxxxxxxxxxxxxxxxxxxxxxxxxxxxx
            x  Element         Atom        Fractional coordinates of atoms  x
            x                 Number           u          v          w      x
            x---------------------------------------------------------------x
            x  Li                1         0.250000   0.250000   0.250000   x
            x  O                 1         0.278080   0.468051   0.126965   x
            x  O                 2         0.468050   0.126966   0.278079   x
            x  O                 3         0.126966   0.278079   0.468050   x
            x  O                 4         0.031949   0.373035   0.221920   x
            x  O                 5         0.373035   0.221921   0.031948   x
            x  O                 6         0.221921   0.031949   0.373035   x
            x  O                 7         0.277989   0.471995   0.625103   x
            x  O                 8         0.471658   0.125377   0.778503   x
            x  O                 9         0.125590   0.277878   0.972624   x
            x  O                10         0.028343   0.374622   0.721497   x
            x  O                11         0.374410   0.222123   0.527375   x
            x  O                12         0.222012   0.028005   0.874897   x
            x  O                13         0.277878   0.972624   0.125590   x
            x  O                14         0.471995   0.625103   0.277989   x
            x  O                15         0.125378   0.778503   0.471658   x
            x  O                16         0.028005   0.874897   0.222011   x
            x  O                17         0.374623   0.721497   0.028342   x
            x  O                18         0.222123   0.527376   0.374410   x
            x  O                19         0.277685   0.973080   0.623532   x
            x  O                20         0.471669   0.624652   0.778428   x
            x  O                21         0.125359   0.777035   0.972506   x
            x  O                22         0.028331   0.875348   0.721572   x
            x  O                23         0.374641   0.722965   0.527494   x
            x  O                24         0.222314   0.526920   0.876468   x
            x  O                25         0.778503   0.471658   0.125378   x
            x  O                26         0.972624   0.125590   0.277878   x
            x  O                27         0.625103   0.277989   0.471996   x
            x  O                28         0.527376   0.374410   0.222123   x
            x  O                29         0.874897   0.222012   0.028005   x
            x  O                30         0.721497   0.028342   0.374622   x
            x  O                31         0.778427   0.471669   0.624652   x
            x  O                32         0.972506   0.125359   0.777036   x
            x  O                33         0.623532   0.277685   0.973080   x
            x  O                34         0.527494   0.374642   0.722964   x
            x  O                35         0.876468   0.222315   0.526920   x
            x  O                36         0.721572   0.028331   0.875348   x
            x  O                37         0.777036   0.972506   0.125359   x
            x  O                38         0.973080   0.623532   0.277685   x
            x  O                39         0.624652   0.778428   0.471669   x
            x  O                40         0.526920   0.876468   0.222315   x
            x  O                41         0.875348   0.721573   0.028331   x
            x  O                42         0.722964   0.527494   0.374642   x
            x  O                43         0.778019   0.972237   0.624911   x
            x  O                44         0.972237   0.624910   0.778020   x
            x  O                45         0.624910   0.778020   0.972237   x
            x  O                46         0.527762   0.875090   0.721981   x
            x  O                47         0.875090   0.721981   0.527763   x
            x  O                48         0.721980   0.527763   0.875090   x
            x  Al                1         0.073754   0.073755   0.073755   x
            x  Al                2         0.329360   0.329360   0.329360   x
            x  Al                3         0.426245   0.426245   0.426245   x
            x  Al                4         0.170640   0.170640   0.170640   x
            x  Al                5         0.071450   0.071688   0.578381   x
            x  Al                6         0.323725   0.324687   0.821679   x
            x  Al                7         0.428550   0.428312   0.921619   x
            x  Al                8         0.176275   0.175313   0.678321   x
            x  Al                9         0.071688   0.578381   0.071450   x
            x  Al               10         0.324687   0.821679   0.323725   x
            x  Al               11         0.428312   0.921619   0.428550   x
            x  Al               12         0.175313   0.678321   0.176275   x
            x  Al               13         0.073545   0.574233   0.574387   x
            x  Al               14         0.324358   0.824029   0.824138   x
            x  Al               15         0.426455   0.925767   0.925613   x
            x  Al               16         0.175642   0.675971   0.675863   x
            x  Al               17         0.578381   0.071450   0.071688   x
            x  Al               18         0.821679   0.323725   0.324687   x
            x  Al               19         0.921619   0.428550   0.428312   x
            x  Al               20         0.678321   0.176275   0.175313   x
            x  Al               21         0.574387   0.073545   0.574233   x
            x  Al               22         0.824138   0.324358   0.824029   x
            x  Al               23         0.925613   0.426455   0.925767   x
            x  Al               24         0.675862   0.175642   0.675971   x
            x  Al               25         0.574233   0.574387   0.073545   x
            x  Al               26         0.824029   0.824137   0.324358   x
            x  Al               27         0.925767   0.925614   0.426455   x
            x  Al               28         0.675971   0.675863   0.175642   x
            x  Al               29         0.574006   0.574006   0.574007   x
            x  Al               30         0.823765   0.823765   0.823765   x
            x  Al               31         0.925993   0.925994   0.925994   x
            x  Al               32         0.676235   0.676235   0.676235   x
            xxxxxxxxxxxxxxxxxxxxxxxxxxxxxxxxxxxxxxxxxxxxxxxxxxxxxxxxxxxxxxxxx


------------------------------------------------------------------------ <-- SCF
SCF loop      Energy           Fermi           Energy gain       Timer   <-- SCF
                               energy          per atom          (sec)   <-- SCF
------------------------------------------------------------------------ <-- SCF
Initial  -2.49248208E+004  0.00000000E+000                       892.45  <-- SCF
      1  -2.49204564E+004  9.92353193E+000  -5.38824659E-002     930.66  <-- SCF
      2  -2.49205854E+004  9.92330159E+000   1.59251744E-003     984.39  <-- SCF
      3  -2.49204508E+004  9.92700267E+000  -1.66098617E-003    1031.59  <-- SCF
      4  -2.49204097E+004  9.92428552E+000  -5.08092543E-004    1080.04  <-- SCF
      5  -2.49204051E+004  9.92454902E+000  -5.68913666E-005    1130.37  <-- SCF
      6  -2.49204042E+004  9.92364662E+000  -1.11081822E-005    1174.09  <-- SCF
      7  -2.49204040E+004  9.92345047E+000  -1.66373518E-006    1210.72  <-- SCF
      8  -2.49204040E+004  9.92337602E+000  -5.13901326E-007    1245.71  <-- SCF
------------------------------------------------------------------------ <-- SCF
 
Final energy, E             =  -24920.40398336     eV
Final free energy (E-TS)    =  -24920.40398336     eV
(energies not corrected for finite basis set)
 
NB est. 0K energy (E-0.5TS)      =  -24920.40398336     eV
 

 ************************************** Forces **************************************
 *                                                                                  *
 *                           Cartesian components (eV/A)                            *
 * -------------------------------------------------------------------------------- *
 *                         x                    y                    z              *
 *                                                                                  *
 * Li              1      0.00001              0.00001              0.00001         *
 * O               1      0.25172             -0.19208              0.20455         *
 * O               2     -0.29205             -0.12196              0.20453         *
 * O               3      0.04038              0.31395              0.20457         *
 * O               4      0.29219              0.12193             -0.20459         *
 * O               5     -0.04041             -0.31407             -0.20452         *
 * O               6     -0.25179              0.19211             -0.20461         *
 * O               7     -0.06497              0.14002             -0.16536         *
 * O               8      0.03060              0.00626             -0.10163         *
 * O               9     -0.15920              0.13627             -0.50010         *
 * O              10     -0.03070             -0.00628              0.10167         *
 * O              11      0.15923             -0.13643              0.50009         *
 * O              12      0.06485             -0.14012              0.16544         *
 * O              13      0.19761              0.06972             -0.50018         *
 * O              14      0.15365             -0.01381             -0.16534         *
 * O              15     -0.00995             -0.02966             -0.10166         *
 * O              16     -0.15378              0.01384              0.16542         *
 * O              17      0.00984              0.02970              0.10166         *
 * O              18     -0.19773             -0.06975              0.50017         *
 * O              19      0.10284             -0.29131              0.20315         *
 * O              20     -0.07367              0.31954              0.17071         *
 * O              21     -0.06196              0.06632              0.07419         *
 * O              22      0.07367             -0.31954             -0.17075         *
 * O              23      0.06194             -0.06639             -0.07414         *
 * O              24     -0.10275              0.29142             -0.20323         *
 * O              25     -0.02067              0.02340             -0.10161         *
 * O              26     -0.03838             -0.20601             -0.50015         *
 * O              27     -0.08875             -0.12613             -0.16533         *
 * O              28      0.03849              0.20604              0.50004         *
 * O              29      0.08890              0.12621              0.16542         *
 * O              30      0.02079             -0.02340              0.10166         *
 * O              31     -0.23982             -0.22352              0.17072         *
 * O              32     -0.02653             -0.08677              0.07413         *
 * O              33      0.20097              0.23471              0.20311         *
 * O              34      0.02653              0.08675             -0.07414         *
 * O              35     -0.20098             -0.23473             -0.20313         *
 * O              36      0.23986              0.22364             -0.17074         *
 * O              37      0.08838              0.02044              0.07419         *
 * O              38     -0.30372              0.05667              0.20321         *
 * O              39      0.31361             -0.09593              0.17082         *
 * O              40      0.30370             -0.05667             -0.20313         *
 * O              41     -0.31359              0.09594             -0.17079         *
 * O              42     -0.08832             -0.02041             -0.07418         *
 * O              43     -0.03861              0.02461             -0.03501         *
 * O              44      0.04057              0.02124             -0.03498         *
 * O              45     -0.00192             -0.04573             -0.03495         *
 * O              46     -0.04048             -0.02119              0.03497         *
 * O              47      0.00199              0.04572              0.03490         *
 * O              48      0.03867             -0.02454              0.03490         *
 * Al              1      0.00007              0.00005             -0.70441         *
 * Al              2      0.00007             -0.00001              0.51235         *
 * Al              3      0.00003             -0.00001              0.70434         *
 * Al              4      0.00004              0.00003             -0.51234         *
 * Al              5     -0.01133              0.44619              0.10456         *
 * Al              6      0.01836             -0.12314              0.46671         *
 * Al              7      0.01140             -0.44621             -0.10450         *
 * Al              8     -0.01823              0.12321             -0.46673         *
 * Al              9      0.39207             -0.21320              0.10454         *
 * Al             10     -0.11575              0.04568              0.46672         *
 * Al             11     -0.39214              0.21323             -0.10445         *
 * Al             12      0.11579             -0.04561             -0.46674         *
 * Al             13     -0.03072             -0.02768             -0.04672         *
 * Al             14     -0.05668              0.07889             -0.25739         *
 * Al             15      0.03072              0.02767              0.04674         *
 * Al             16      0.05658             -0.07889              0.25738         *
 * Al             17     -0.38080             -0.23299              0.10453         *
 * Al             18      0.09731              0.07742              0.46670         *
 * Al             19      0.38071              0.23289             -0.10451         *
 * Al             20     -0.09755             -0.07748             -0.46674         *
 * Al             21      0.03927             -0.01273             -0.04673         *
 * Al             22     -0.04006             -0.08849             -0.25738         *
 * Al             23     -0.03941              0.01274              0.04675         *
 * Al             24      0.04000              0.08846              0.25732         *
 * Al             25     -0.00860              0.04046             -0.04666         *
 * Al             26      0.09658              0.00950             -0.25737         *
 * Al             27      0.00861             -0.04053              0.04670         *
 * Al             28     -0.09662             -0.00959              0.25731         *
 * Al             29     -0.00003              0.00004             -0.11588         *
 * Al             30      0.00001             -0.00003              0.07551         *
 * Al             31      0.00007              0.00004              0.11592         *
 * Al             32     -0.00002              0.00005             -0.07556         *
 *                                                                                  *
 ************************************************************************************
  
 +------------+-------------+-------------+-----------------+ <-- min LBFGS
 |    Step    |   lambda    |   F.delta'  |    enthalpy     | <-- min LBFGS
 +------------+-------------+-------------+-----------------+ <-- min LBFGS
 |  previous  |    0.000000 |    3.821454 |   -24919.202207 | <-- min LBFGS
 | trial step |    1.000000 |    3.071451 |   -24919.635522 | <-- min LBFGS
 |  line step |    5.095249 |   -0.100680 |   -24920.403983 | <-- min LBFGS
 +------------+-------------+-------------+-----------------+ <-- min LBFGS
  
 LBFGS: finished iteration     1 with enthalpy= -2.49204040E+004 eV
  
 +-----------+-----------------+-----------------+------------+-----+ <-- LBFGS
 | Parameter |      value      |    tolerance    |    units   | OK? | <-- LBFGS
 +-----------+-----------------+-----------------+------------+-----+ <-- LBFGS
 |  dE/ion   |   1.483674E-002 |   1.000000E-005 |         eV | No  | <-- LBFGS
 |  |F|max   |   7.044137E-001 |   1.000000E-002 |       eV/A | No  | <-- LBFGS
 |  |dR|max  |   1.405061E-001 |   1.000000E-003 |          A | No  | <-- LBFGS
 +-----------+-----------------+-----------------+------------+-----+ <-- LBFGS
  

================================================================================
 Starting LBFGS iteration          2 ...
================================================================================
  
 +------------+-------------+-------------+-----------------+ <-- min LBFGS
 |    Step    |   lambda    |   F.delta'  |    enthalpy     | <-- min LBFGS
 +------------+-------------+-------------+-----------------+ <-- min LBFGS
 |  previous  |    0.000000 |    1.056276 |   -24920.403983 | <-- min LBFGS
 +------------+-------------+-------------+-----------------+ <-- min LBFGS
  

--------------------------------------------------------------------------------
 LBFGS: starting iteration         2 with trial guess (lambda=  1.000000)
--------------------------------------------------------------------------------

                           -------------------------------
                                     Cell Contents
                           -------------------------------

            xxxxxxxxxxxxxxxxxxxxxxxxxxxxxxxxxxxxxxxxxxxxxxxxxxxxxxxxxxxxxxxxx
            x  Element         Atom        Fractional coordinates of atoms  x
            x                 Number           u          v          w      x
            x---------------------------------------------------------------x
            x  Li                1         0.250000   0.250000   0.250000   x
            x  O                 1         0.278186   0.467922   0.127105   x
            x  O                 2         0.467920   0.127106   0.278186   x
            x  O                 3         0.127106   0.278186   0.467920   x
            x  O                 4         0.032079   0.372894   0.221814   x
            x  O                 5         0.372895   0.221814   0.032078   x
            x  O                 6         0.221814   0.032078   0.372895   x
            x  O                 7         0.277967   0.472037   0.624993   x
            x  O                 8         0.471657   0.125345   0.778480   x
            x  O                 9         0.125458   0.277905   0.972454   x
            x  O                10         0.028343   0.374655   0.721520   x
            x  O                11         0.374542   0.222096   0.527546   x
            x  O                12         0.222033   0.027963   0.875007   x
            x  O                13         0.277905   0.972454   0.125458   x
            x  O                14         0.472037   0.624993   0.277967   x
            x  O                15         0.125345   0.778479   0.471657   x
            x  O                16         0.027963   0.875007   0.222033   x
            x  O                17         0.374655   0.721520   0.028343   x
            x  O                18         0.222095   0.527546   0.374542   x
            x  O                19         0.277691   0.972980   0.623740   x
            x  O                20         0.471755   0.624811   0.778276   x
            x  O                21         0.125359   0.777101   0.972480   x
            x  O                22         0.028245   0.875189   0.721725   x
            x  O                23         0.374641   0.722899   0.527520   x
            x  O                24         0.222309   0.527021   0.876261   x
            x  O                25         0.778479   0.471657   0.125345   x
            x  O                26         0.972454   0.125458   0.277905   x
            x  O                27         0.624993   0.277967   0.472037   x
            x  O                28         0.527546   0.374542   0.222095   x
            x  O                29         0.875007   0.222033   0.027963   x
            x  O                30         0.721520   0.028343   0.374655   x
            x  O                31         0.778275   0.471755   0.624812   x
            x  O                32         0.972480   0.125359   0.777102   x
            x  O                33         0.623739   0.277691   0.972980   x
            x  O                34         0.527520   0.374641   0.722898   x
            x  O                35         0.876261   0.222309   0.527020   x
            x  O                36         0.721724   0.028245   0.875189   x
            x  O                37         0.777102   0.972480   0.125359   x
            x  O                38         0.972979   0.623739   0.277691   x
            x  O                39         0.624811   0.778275   0.471755   x
            x  O                40         0.527020   0.876261   0.222309   x
            x  O                41         0.875189   0.721725   0.028245   x
            x  O                42         0.722898   0.527520   0.374641   x
            x  O                43         0.778001   0.972256   0.624891   x
            x  O                44         0.972256   0.624890   0.778002   x
            x  O                45         0.624890   0.778001   0.972256   x
            x  O                46         0.527744   0.875110   0.721999   x
            x  O                47         0.875110   0.721999   0.527744   x
            x  O                48         0.721999   0.527744   0.875110   x
            x  Al                1         0.073628   0.073628   0.073628   x
            x  Al                2         0.329436   0.329436   0.329436   x
            x  Al                3         0.426372   0.426372   0.426372   x
            x  Al                4         0.170564   0.170564   0.170564   x
            x  Al                5         0.071598   0.071847   0.578132   x
            x  Al                6         0.323784   0.324725   0.821841   x
            x  Al                7         0.428402   0.428153   0.921868   x
            x  Al                8         0.176216   0.175275   0.678159   x
            x  Al                9         0.071847   0.578132   0.071598   x
            x  Al               10         0.324725   0.821841   0.323784   x
            x  Al               11         0.428153   0.921868   0.428402   x
            x  Al               12         0.175275   0.678159   0.176216   x
            x  Al               13         0.073515   0.574231   0.574393   x
            x  Al               14         0.324305   0.824033   0.824046   x
            x  Al               15         0.426485   0.925769   0.925607   x
            x  Al               16         0.175695   0.675967   0.675955   x
            x  Al               17         0.578132   0.071598   0.071847   x
            x  Al               18         0.821841   0.323784   0.324725   x
            x  Al               19         0.921868   0.428402   0.428153   x
            x  Al               20         0.678159   0.176216   0.175275   x
            x  Al               21         0.574393   0.073515   0.574231   x
            x  Al               22         0.824046   0.324305   0.824033   x
            x  Al               23         0.925607   0.426485   0.925769   x
            x  Al               24         0.675954   0.175695   0.675967   x
[...]
              O 10 -- O 32                  -0.08        2.62032
              O 15 -- O 23                  -0.08        2.62032
              O 8  -- O 34                  -0.08        2.62032
              O 30 -- O 37                  -0.08        2.62032
              O 25 -- O 42                  -0.08        2.62032
              O 20 -- O 34                  -0.08        2.62143
              O 22 -- O 32                  -0.08        2.62143
              O 36 -- O 37                  -0.08        2.62143
              O 31 -- O 42                  -0.08        2.62143
              O 23 -- O 39                  -0.08        2.62143
              O 21 -- O 41                  -0.08        2.62143
              O 20 -- O 46                  -0.08        2.62165
              O 39 -- O 47                  -0.08        2.62165
              O 31 -- O 48                  -0.08        2.62166
              O 22 -- O 44                  -0.08        2.62166
              O 41 -- O 45                  -0.08        2.62166
              O 36 -- O 43                  -0.08        2.62166
              O 30 -- O 43                  -0.08        2.63038
              O 10 -- O 44                  -0.08        2.63038
              O 8  -- O 46                  -0.08        2.63038
              O 25 -- O 48                  -0.08        2.63038
              O 17 -- O 45                  -0.08        2.63038
              O 15 -- O 47                  -0.08        2.63038
              O 2  -- O 28                  -0.08        2.64016
              O 4  -- O 26                  -0.08        2.64016
              O 3  -- O 11                  -0.08        2.64016
              O 5  -- O 9                   -0.08        2.64016
              O 1  -- O 18                  -0.08        2.64016
              O 6  -- O 13                  -0.08        2.64016
              O 4  -- O 38                  -0.07        2.64930
              O 6  -- O 19                  -0.07        2.64931
              O 2  -- O 40                  -0.07        2.64931
              O 1  -- O 24                  -0.07        2.64931
              O 5  -- O 33                  -0.07        2.64931
              O 3  -- O 35                  -0.07        2.64931
             Al 21 -- Al 24                 -0.20        2.65155
             Al 22 -- Al 23                 -0.20        2.65155
             Al 13 -- Al 16                 -0.20        2.65155
             Al 25 -- Al 28                 -0.20        2.65155
             Al 14 -- Al 15                 -0.20        2.65155
             Al 26 -- Al 27                 -0.20        2.65155
             Al 30 -- Al 31                 -0.19        2.66289
             Al 29 -- Al 32                 -0.19        2.66289
             Al 6  -- Al 7                  -0.15        2.66496
             Al 10 -- Al 11                 -0.15        2.66496
             Al 9  -- Al 12                 -0.15        2.66496
             Al 18 -- Al 19                 -0.15        2.66496
             Al 5  -- Al 8                  -0.15        2.66496
             Al 17 -- Al 20                 -0.15        2.66496
              O 15 -- O 18                  -0.06        2.69923
              O 8  -- O 11                  -0.06        2.69923
              O 13 -- O 17                  -0.06        2.69923
              O 9  -- O 10                  -0.06        2.69923
              O 25 -- O 28                  -0.06        2.69924
              O 26 -- O 30                  -0.06        2.69924
              O 7  -- O 11                  -0.05        2.71013
              O 9  -- O 12                  -0.05        2.71013
              O 27 -- O 28                  -0.05        2.71013
              O 26 -- O 29                  -0.05        2.71013
              O 14 -- O 18                  -0.05        2.71013
              O 13 -- O 16                  -0.05        2.71013
              O 33 -- O 34                  -0.05        2.71475
              O 21 -- O 24                  -0.05        2.71475
              O 32 -- O 35                  -0.05        2.71475
              O 19 -- O 23                  -0.05        2.71475
              O 37 -- O 40                  -0.05        2.71475
              O 38 -- O 42                  -0.05        2.71476
              O 3  -- O 6                   -0.06        2.71720
              O 1  -- O 5                   -0.06        2.71720
              O 2  -- O 5                   -0.06        2.71720
              O 3  -- O 4                   -0.06        2.71720
              O 2  -- O 6                   -0.06        2.71720
              O 1  -- O 4                   -0.06        2.71720
              O 12 -- O 21                  -0.05        2.71906
              O 7  -- O 23                  -0.05        2.71906
              O 14 -- O 42                  -0.05        2.71906
              O 16 -- O 37                  -0.05        2.71906
              O 29 -- O 32                  -0.05        2.71906
              O 27 -- O 34                  -0.05        2.71906
              O 29 -- O 37                  -0.05        2.71961
              O 16 -- O 21                  -0.05        2.71961
              O 14 -- O 23                  -0.05        2.71961
              O 27 -- O 42                  -0.05        2.71961
              O 7  -- O 34                  -0.05        2.71961
              O 12 -- O 32                  -0.05        2.71961
              O 8  -- O 36                  -0.05        2.72351
              O 15 -- O 22                  -0.05        2.72351
              O 10 -- O 31                  -0.05        2.72351
              O 30 -- O 39                  -0.05        2.72351
              O 25 -- O 41                  -0.05        2.72351
              O 17 -- O 20                  -0.05        2.72351
              O 20 -- O 23                  -0.05        2.72959
              O 39 -- O 42                  -0.05        2.72959
              O 21 -- O 22                  -0.05        2.72959
              O 37 -- O 41                  -0.05        2.72959
              O 31 -- O 34                  -0.05        2.72959
              O 32 -- O 36                  -0.05        2.72959
              O 33 -- O 36                  -0.05        2.73004
              O 31 -- O 35                  -0.05        2.73004
              O 39 -- O 40                  -0.05        2.73004
              O 38 -- O 41                  -0.05        2.73004
              O 20 -- O 24                  -0.05        2.73004
              O 19 -- O 22                  -0.05        2.73004
              O 20 -- O 48                  -0.05        2.73260
              O 22 -- O 43                  -0.05        2.73260
              O 31 -- O 47                  -0.05        2.73260
              O 41 -- O 44                  -0.05        2.73260
              O 39 -- O 46                  -0.05        2.73260
              O 36 -- O 45                  -0.05        2.73260
              O 45 -- O 46                  -0.05        2.73492
              O 44 -- O 47                  -0.05        2.73492
              O 43 -- O 47                  -0.05        2.73492
              O 45 -- O 48                  -0.05        2.73492
              O 43 -- O 46                  -0.05        2.73492
              O 44 -- O 48                  -0.05        2.73492
              O 19 -- O 46                  -0.05        2.74042
              O 33 -- O 48                  -0.05        2.74042
              O 38 -- O 47                  -0.05        2.74042
              O 35 -- O 43                  -0.05        2.74042
              O 40 -- O 45                  -0.05        2.74042
              O 24 -- O 44                  -0.05        2.74042
              O 3  -- O 10                  -0.05        2.74148
              O 1  -- O 17                  -0.05        2.74148
              O 5  -- O 8                   -0.05        2.74148
              O 2  -- O 30                  -0.05        2.74148
              O 6  -- O 15                  -0.05        2.74148
              O 4  -- O 25                  -0.05        2.74148
              O 1  -- O 28                  -0.05        2.74922
              O 6  -- O 26                  -0.05        2.74922
              O 3  -- O 18                  -0.05        2.74922
              O 2  -- O 11                  -0.05        2.74922
              O 4  -- O 9                   -0.05        2.74922
              O 5  -- O 13                  -0.05        2.74922
              O 25 -- O 29                  -0.05        2.75409
              O 27 -- O 30                  -0.05        2.75409
              O 14 -- O 17                  -0.05        2.75409
              O 15 -- O 16                  -0.05        2.75409
              O 8  -- O 12                  -0.05        2.75409
              O 7  -- O 10                  -0.05        2.75409
             Al 2  -- Al 12                 -0.14        2.76657
             Al 4  -- Al 10                 -0.14        2.76657
             Al 4  -- Al 6                  -0.14        2.76657
             Al 2  -- Al 8                  -0.14        2.76657
             Al 4  -- Al 18                 -0.14        2.76657
             Al 2  -- Al 20                 -0.14        2.76658
              O 26 -- O 35                  -0.05        2.76884
              O 28 -- O 33                  -0.05        2.76884
              O 13 -- O 40                  -0.05        2.76884
              O 18 -- O 38                  -0.05        2.76884
              O 11 -- O 19                  -0.05        2.76884
              O 9  -- O 24                  -0.05        2.76884
              O 1  -- O 2                   -0.05        2.77758
              O 4  -- O 6                   -0.05        2.77758
              O 5  -- O 6                   -0.05        2.77758
              O 1  -- O 3                   -0.05        2.77758
              O 2  -- O 3                   -0.05        2.77758
              O 4  -- O 5                   -0.05        2.77758
             Al 9  -- Al 31                 -0.21        2.78277
             Al 11 -- Al 29                 -0.21        2.78277
             Al 17 -- Al 31                 -0.21        2.78277
             Al 5  -- Al 31                 -0.21        2.78277
             Al 19 -- Al 29                 -0.21        2.78277
             Al 7  -- Al 29                 -0.21        2.78277
             Al 15 -- Al 25                 -0.20        2.78426
             Al 13 -- Al 27                 -0.20        2.78426
             Al 23 -- Al 25                 -0.20        2.78426
             Al 21 -- Al 27                 -0.20        2.78426
             Al 13 -- Al 23                 -0.20        2.78426
             Al 15 -- Al 21                 -0.20        2.78426
              Li 1 -- Al 9                  -0.39        2.78447
              Li 1 -- Al 11                 -0.39        2.78448
              Li 1 -- Al 7                  -0.39        2.78448
              Li 1 -- Al 19                 -0.39        2.78448
              Li 1 -- Al 17                 -0.39        2.78448
              Li 1 -- Al 5                  -0.39        2.78448
             Al 24 -- Al 30                 -0.20        2.79702
             Al 22 -- Al 32                 -0.20        2.79702
             Al 28 -- Al 30                 -0.20        2.79702
             Al 26 -- Al 32                 -0.20        2.79702
             Al 16 -- Al 30                 -0.20        2.79702
             Al 14 -- Al 32                 -0.20        2.79702
             Al 8  -- Al 14                 -0.20        2.80051
             Al 6  -- Al 16                 -0.20        2.80051
             Al 18 -- Al 24                 -0.20        2.80051
             Al 20 -- Al 22                 -0.20        2.80051
             Al 12 -- Al 26                 -0.20        2.80051
             Al 10 -- Al 28                 -0.20        2.80051
             Al 18 -- Al 28                 -0.20        2.80327
             Al 20 -- Al 26                 -0.20        2.80327
             Al 12 -- Al 14                 -0.20        2.80327
             Al 10 -- Al 16                 -0.20        2.80327
             Al 8  -- Al 22                 -0.20        2.80327
             Al 6  -- Al 24                 -0.20        2.80327
             Al 5  -- Al 19                 -0.16        2.81929
             Al 7  -- Al 17                 -0.16        2.81929
             Al 5  -- Al 11                 -0.16        2.81929
             Al 9  -- Al 19                 -0.16        2.81929
             Al 7  -- Al 9                  -0.16        2.81929
             Al 11 -- Al 17                 -0.16        2.81929
             Al 1  -- Al 23                 -0.18        2.82465
             Al 3  -- Al 21                 -0.18        2.82465
             Al 1  -- Al 15                 -0.18        2.82465
             Al 1  -- Al 27                 -0.18        2.82465
             Al 3  -- Al 25                 -0.18        2.82465
             Al 3  -- Al 13                 -0.18        2.82465
              O 5  -- O 40                  -0.04        2.84468
              O 3  -- O 38                  -0.04        2.84468
              O 1  -- O 33                  -0.04        2.84468
              O 6  -- O 35                  -0.04        2.84468
              O 4  -- O 24                  -0.04        2.84469
              O 2  -- O 19                  -0.04        2.84469
              O 25 -- O 26                  -0.04        2.85345
              O 28 -- O 30                  -0.04        2.85345
              O 13 -- O 15                  -0.04        2.85345
              O 17 -- O 18                  -0.04        2.85345
              O 10 -- O 11                  -0.04        2.85345
              O 8  -- O 9                   -0.04        2.85345
              O 13 -- O 14                  -0.04        2.86032
              O 16 -- O 18                  -0.04        2.86032
              O 7  -- O 9                   -0.04        2.86032
              O 11 -- O 12                  -0.04        2.86032
              O 26 -- O 27                  -0.04        2.86032
              O 28 -- O 29                  -0.04        2.86032
              O 8  -- O 45                  -0.04        2.86657
              O 10 -- O 47                  -0.04        2.86657
              O 17 -- O 48                  -0.04        2.86658
              O 15 -- O 43                  -0.04        2.86658
              O 25 -- O 44                  -0.04        2.86658
              O 30 -- O 46                  -0.04        2.86658
              O 34 -- O 36                  -0.04        2.86999
              O 31 -- O 32                  -0.04        2.86999
              O 37 -- O 39                  -0.04        2.86999
              O 41 -- O 42                  -0.04        2.86999
              O 20 -- O 21                  -0.04        2.86999
              O 22 -- O 23                  -0.04        2.86999
              O 9  -- O 44                  -0.04        2.87382
              O 11 -- O 46                  -0.04        2.87382
              O 13 -- O 45                  -0.04        2.87382
              O 18 -- O 47                  -0.04        2.87383
              O 26 -- O 43                  -0.04        2.87383
              O 28 -- O 48                  -0.04        2.87383
              O 46 -- O 48                  -0.04        2.87995
              O 43 -- O 44                  -0.04        2.87995
              O 47 -- O 48                  -0.04        2.87995
              O 43 -- O 45                  -0.04        2.87995
              O 46 -- O 47                  -0.04        2.87995
              O 44 -- O 45                  -0.04        2.87995
              O 19 -- O 20                  -0.04        2.88167
              O 22 -- O 24                  -0.04        2.88167
              O 31 -- O 33                  -0.04        2.88167
              O 35 -- O 36                  -0.04        2.88167
              O 38 -- O 39                  -0.04        2.88167
              O 40 -- O 41                  -0.04        2.88167
              O 22 -- O 35                  -0.04        2.88180
              O 20 -- O 33                  -0.04        2.88180
              O 24 -- O 41                  -0.04        2.88180
              O 19 -- O 39                  -0.04        2.88180
              O 36 -- O 40                  -0.04        2.88180
              O 31 -- O 38                  -0.04        2.88181
              O 17 -- O 28                  -0.04        2.88220
              O 15 -- O 26                  -0.04        2.88220
              O 9  -- O 25                  -0.04        2.88221
              O 11 -- O 30                  -0.04        2.88221
              O 10 -- O 18                  -0.04        2.88221
              O 8  -- O 13                  -0.04        2.88221
              O 16 -- O 29                  -0.04        2.88765
              O 14 -- O 27                  -0.04        2.88765
              O 7  -- O 27                  -0.04        2.88765
              O 12 -- O 29                  -0.04        2.88765
              O 12 -- O 16                  -0.04        2.88765
              O 7  -- O 14                  -0.04        2.88765
              O 7  -- O 8                   -0.04        2.88961
              O 10 -- O 12                  -0.04        2.88961
              O 29 -- O 30                  -0.04        2.88961
              O 25 -- O 27                  -0.04        2.88961
              O 14 -- O 15                  -0.04        2.88961
              O 16 -- O 17                  -0.04        2.88961
              O 37 -- O 38                  -0.04        2.89453
              O 40 -- O 42                  -0.04        2.89453
              O 19 -- O 21                  -0.04        2.89453
              O 23 -- O 24                  -0.04        2.89453
              O 32 -- O 33                  -0.04        2.89453
              O 34 -- O 35                  -0.04        2.89453
              O 21 -- O 32                  -0.04        2.89786
              O 23 -- O 34                  -0.04        2.89786
              O 23 -- O 42                  -0.04        2.89786
              O 21 -- O 37                  -0.04        2.89786
              O 34 -- O 42                  -0.04        2.89786
              O 32 -- O 37                  -0.04        2.89786
              O 4  -- O 41                  -0.03        2.91768
              O 2  -- O 39                  -0.03        2.91768
              O 5  -- O 36                  -0.03        2.91768
              O 3  -- O 31                  -0.03        2.91768
              O 6  -- O 22                  -0.03        2.91768
              O 1  -- O 20                  -0.03        2.91769
======================================================================


Writing analysis data to al2o3_xc-PBESOL_c-0700_k-2x2x2_sc-2x2x2_site-0_geom.castep_bin

Writing model to al2o3_xc-PBESOL_c-0700_k-2x2x2_sc-2x2x2_site-0_geom.check
 
 A BibTeX formatted list of references used in this run has been written to 
 al2o3_xc-PBESOL_c-0700_k-2x2x2_sc-2x2x2_site-0_geom.bib
 
Initialisation time =     10.71 s
Calculation time    =   9055.46 s
Finalisation time   =      1.01 s
Total time          =   9067.18 s
Peak Memory Use     = 1912272 kB
  
Overall parallel efficiency rating: Satisfactory (67%)                          
  
Data was distributed by:-
G-vector (2-way); efficiency rating: Satisfactory (68%)                         
k-point (4-way); efficiency rating: Excellent (98%)                             
