 +-------------------------------------------------+
 |                                                 |
 |      CCC   AA    SSS  TTTTT  EEEEE  PPPP        |
 |     C     A  A  S       T    E      P   P       |
 |     C     AAAA   SS     T    EEE    PPPP        |
 |     C     A  A     S    T    E      P           |
 |      CCC  A  A  SSS     T    EEEEE  P           |
 |                                                 |
 +-------------------------------------------------+
 |                                                 |
 | Welcome to Academic Release CASTEP version 20.11|          
 | Ab Initio Total Energy Program                  |
 |                                                 |
 | Authors:                                        |
 | M. Segall, M. Probert, C. Pickard, P. Hasnip,   |
 | S. Clark, K. Refson, J. R. Yates, M. Payne      |
 |                                                 |
 | Contributors:                                   |
 | P. Lindan, P. Haynes, J. White, V. Milman,      |
 | N. Govind, M. Gibson, P. Tulip, V. Cocula,      |
 | B. Montanari, D. Quigley, M. Glover,            |
 | L. Bernasconi, A. Perlov, M. Plummer,           |
 | E. McNellis, J. Meyer, J. Gale, D. Jochym       |
 | J. Aarons, B. Walker, R. Gillen, D. Jones       |
 | T. Green, I. J. Bush, C. J. Armstrong,          |
 | E. J. Higgins, E. L. Brown, M. S. McFly,        |
 | J. Wilkins, B-C. Shih, P. J. P. Byrne,          |
 | R. J. Maurer, J. C. Womack, J. Dziedzic,        |
 | J. R. Kermode, A. Bartok-Partay                 |
 |                                                 |
 | Copyright (c) 2000 - 2020                       |
 |                                                 |
 |     Distributed under license from Cambridge    |
 |     Enterprise for academic use only.           |
 |                                                 |
 | Please cite                                     |
 |                                                 |
 |     "First principles methods using CASTEP"     |
 |                                                 |
 |         Zeitschrift fuer Kristallographie       |
 |           220(5-6) pp. 567-570 (2005)           |
 |                                                 |
 | S. J. Clark, M. D. Segall, C. J. Pickard,       |
 | P. J. Hasnip, M. J. Probert, K. Refson,         |
 | M. C. Payne                                     |
 |                                                 |
 |       in all publications arising from          |
 |              your use of CASTEP                 |
 |                                                 |
 +-------------------------------------------------+
 |                                                 |
 |              http://www.castep.org              |
 |                                                 |
 +-------------------------------------------------+
 
 
 
 Compiled for linux_x86_64_ifort on Fri, 22 Oct 2021 12:44:39 +0100
 from code version Version unavailable
 Compiler: Intel Fortran 19.1.0.166; Optimisation: fast
 MATHLIBS: Intel MKL(2020.0.0) (LAPACK version 3.7.0)
 FFT Lib : mkl
 Fundamental constants values: CODATA 2014
 
 Run started: Mon, 15 Nov 2021 10:19:13 +0000
 
 Atomic calculation performed for Li: 1s2 2s1
 
 Converged in 48 iterations to an ae energy of -201.033 eV
 
   ============================================================                
   | Pseudopotential Report - Date of generation 15-11-2021   |                
   ------------------------------------------------------------                
   | Element: Li Ionic charge:  3.00 Level of theory: PBESOL  |                
   | Atomic Solver: Koelling-Harmon                           |                
   |                                                          |                
   |               Reference Electronic Structure             |                
   |         Orbital         Occupation         Energy        |                
   |            1s              2.000           -1.888        |                
   |            2s              1.000           -0.104        |                
   |                                                          |                
   |                 Pseudopotential Definition               |                
   |        Beta     l      e      Rc     scheme   norm       |                
   |          1      0   -1.888   1.001     qc      0         |                
   |          2      0   -0.104   1.001     qc      0         |                
   |          3      0    0.250   1.001     qc      0         |                
   |         loc     1    0.000   1.001     pn      0         |                
   |                                                          |                
   | Augmentation charge Rinner = 0.699                       |                
   | No partial core correction                               |                
   ------------------------------------------------------------                
   | "1|1.0|14|16|18|10U:20(qc=7)"                            |                
   ------------------------------------------------------------                
   |      Author: Chris J. Pickard, Cambridge University      |                
   ============================================================                
 
 Atomic calculation performed for O: 1s2 2s2 2p4
 
 Converged in 57 iterations to an ae energy of -2034.019 eV
 
   ============================================================                
   | Pseudopotential Report - Date of generation 15-11-2021   |                
   ------------------------------------------------------------                
   | Element: O Ionic charge:  6.00 Level of theory: PBESOL   |                
   | Atomic Solver: Koelling-Harmon                           |                
   |                                                          |                
   |               Reference Electronic Structure             |                
   |         Orbital         Occupation         Energy        |                
   |            2s              2.000           -0.875        |                
   |            2p              4.000           -0.330        |                
   |                                                          |                
   |                 Pseudopotential Definition               |                
   |        Beta     l      e      Rc     scheme   norm       |                
   |          1      0   -0.875   1.100     qc      0         |                
   |          2      0    0.250   1.100     qc      0         |                
   |          3      1   -0.330   1.100     qc      0         |                
   |          4      1    0.250   1.100     qc      0         |                
   |         loc     2    0.000   1.100     pn      0         |                
   |                                                          |                
   | Augmentation charge Rinner = 0.769                       |                
   | Partial core correction Rc = 0.769                       |                
   ------------------------------------------------------------                
   | "2|1.1|17|20|23|20:21(qc=8)"                             |                
   ------------------------------------------------------------                
   |      Author: Chris J. Pickard, Cambridge University      |                
   ============================================================                
 
 Atomic calculation performed for Al: 1s2 2s2 2p6 3s2 3p1
 
 Converged in 55 iterations to an ae energy of -6590.489 eV
 
   ============================================================                
   | Pseudopotential Report - Date of generation 15-11-2021   |                
   ------------------------------------------------------------                
   | Element: Al Ionic charge:  3.00 Level of theory: PBESOL  |                
   | Atomic Solver: Koelling-Harmon                           |                
   |                                                          |                
   |               Reference Electronic Structure             |                
   |         Orbital         Occupation         Energy        |                
   |            3s              2.000           -0.284        |                
   |            3p              1.000           -0.099        |                
   |                                                          |                
   |                 Pseudopotential Definition               |                
   |        Beta     l      e      Rc     scheme   norm       |                
   |          1      0   -0.284   2.192     qc      0         |                
   |          2      0    0.250   2.192     qc      0         |                
   |          3      1   -0.099   2.192     qc      0         |                
   |          4      1    0.250   2.192     qc      0         |                
   |          5      2    0.000   2.000     qc      0         |                
   |          6      2    0.250   2.000     qc      0         |                
   |         loc     3    0.000   2.192     pn      0         |                
   |                                                          |                
   | Augmentation charge Rinner = 1.398                       |                
   | Partial core correction Rc = 1.398                       |                
   ------------------------------------------------------------                
   | "3|2.2|2.2|1.4|4|5|5|30:31:32U2U2"                       |                
   ------------------------------------------------------------                
   |      Author: Chris J. Pickard, Cambridge University      |                
   ============================================================                
 
 Pseudo atomic calculation performed for Li 1s2 2s1
 
 Converged in 16 iterations to a total energy of -198.8771 eV
 
 Pseudo atomic calculation performed for O 2s2 2p4
 
 Converged in 14 iterations to a total energy of -431.0588 eV
 
 Pseudo atomic calculation performed for Al 3s2 3p1
 
 Converged in 11 iterations to a total energy of -105.9170 eV
 Calculation parallelised over 80 processes.
 Data is distributed by G-vector(80-way)

 ************************************ Title ************************************
 

 ***************************** General Parameters ******************************
  
 output verbosity                               : normal  (1)
 write checkpoint data to                       : al2o3_xc-PBESOL_c-0700_k-1x1x1_sc-3x3x3_site-0_geom.check
 type of calculation                            : geometry optimization
 stress calculation                             : off
 density difference calculation                 : off
 electron localisation func (ELF) calculation   : off
 Hirshfeld analysis                             : off
 molecular orbital projected DOS                : off
 deltaSCF calculation                           : off
 unlimited duration calculation
 timing information                             : on
 memory usage estimate                          : on
 write extra output files                       : on
 write final potential to formatted file        : off
 write final density to formatted file          : off
 write structure in CIF formatted file          : on
 write structure in CELL formatted file         : on
 write BibTeX reference list                    : on
 write OTFG pseudopotential files               : on
 write electrostatic potential file             : on
 write bands file                               : on
 checkpoint writing                             : both castep_bin and check files
  
 output         length unit                     : A
 output           mass unit                     : amu
 output           time unit                     : ps
 output         charge unit                     : e
 output           spin unit                     : hbar/2
 output         energy unit                     : eV
 output          force unit                     : eV/A
 output       velocity unit                     : A/ps
 output       pressure unit                     : GPa
 output     inv_length unit                     : 1/A
 output      frequency unit                     : cm-1
 output force constant unit                     : eV/A**2
 output         volume unit                     : A**3
 output   IR intensity unit                     : (D/A)**2/amu
 output         dipole unit                     : D
 output         efield unit                     : eV/A/e
 output        entropy unit                     : J/mol/K
 output    efield chi2 unit                     : pm/V
  
 wavefunctions paging                           : none
 random number generator seed                   : randomised (101914087)
 data distribution                              : optimal for this architecture
 optimization strategy                          : maximize speed(+++)

 *********************** Exchange-Correlation Parameters ***********************
  
 using functional                               : PBE for solids (2008)
 relativistic treatment                         : Koelling-Harmon
 DFT+D: Semi-empirical dispersion correction    : off

 ************************* Pseudopotential Parameters **************************
  
 pseudopotential representation                 : reciprocal space
 <beta|phi> representation                      : reciprocal space
 spin-orbit coupling                            : off

 **************************** Basis Set Parameters *****************************
  
 plane wave basis set cut-off                   :   700.0000   eV
 size of standard grid                          :     1.7500
 size of   fine   gmax                          :    23.7206   1/A
 finite basis set correction                    : none

 **************************** Electronic Parameters ****************************
  
 number of  electrons                           :  1298.    
 net charge of system                           : +1.000    
 treating system as non-spin-polarized
 number of bands                                :        779

 ********************* Electronic Minimization Parameters **********************
  
 Method: Treating system as metallic with density mixing treatment of electrons,
         and number of  SD  steps               :          1
         and number of  CG  steps               :          4
  
 total energy / atom convergence tol.           : 0.1000E-04   eV
 eigen-energy convergence tolerance             : 0.1000E-05   eV
 max force / atom convergence tol.              : ignored
 convergence tolerance window                   :          3   cycles
 max. number of SCF cycles                      :         30
 number of fixed-spin iterations                :         10
 smearing scheme                                : Gaussian
 smearing width                                 : 0.2000       eV
 Fermi energy convergence tolerance             : 0.2721E-13   eV
 periodic dipole correction                     : NONE

 ************************** Density Mixing Parameters **************************
  
 density-mixing scheme                          : Broyden
 max. length of mixing history                  :         20
 charge density mixing amplitude                : 0.8000    
 cut-off energy for mixing                      :  700.0       eV

 *********************** Population Analysis Parameters ************************
  
 Population analysis with cutoff                :  3.000       A
 Population analysis output                     : summary and pdos components

 ********************** Geometry Optimization Parameters ***********************
  
 optimization method                            : LBFGS
 max. no. of LBFGS updates                      : unbounded
 variable cell method                           : fixed basis quality
 max. number of steps                           :        150
 estimated bulk modulus                         :  500.0       GPa
 estimated <frequency>                          :  1668.       cm-1
 geom line minimiser                            : on
 with line minimiser tolerance                  :     0.4000
 total energy convergence tolerance             : 0.1000E-04   eV/atom
        max ionic |force| tolerance             : 0.1000E-01   eV/A
 max ionic |displacement| tolerance             : 0.1000E-02   A
   max |stress component| tolerance             : 0.1000       GPa
 convergence tolerance window                   :          2   steps
 backup results every                           :          5   steps
 write geom trajectory file                     : on

 *******************************************************************************
  
 
                           -------------------------------
                                      Unit Cell
                           -------------------------------
        Real Lattice(A)                      Reciprocal Lattice(1/A)
     7.1585490     4.1329960    13.0126620        0.438858935   0.253374959   0.160950498
    -7.1585410     4.1329870    13.0126610       -0.438859276   0.253375526   0.160950588
    -0.0000040    -8.2659800    13.0126600        0.000000307  -0.506750544   0.160950601
 
                       Lattice parameters(A)       Cell Angles
                    a =     15.416091          alpha =   55.337041
                    b =     15.416084          beta  =   55.337094
                    c =     15.416087          gamma =   55.337039
 
                       Current cell volume =          2309.971027       A**3
                                   density =             2.386545   AMU/A**3
                                           =             3.962951     g/cm^3
 
                           -------------------------------
                                     Cell Contents
                           -------------------------------
                         Total number of ions in cell =  271
                      Total number of species in cell =    3
                        Max number of any one species =  162
 
            xxxxxxxxxxxxxxxxxxxxxxxxxxxxxxxxxxxxxxxxxxxxxxxxxxxxxxxxxxxx
            x  Element    Atom        Fractional coordinates of atoms  x
            x            Number           u          v          w      x
            x----------------------------------------------------------x
            x  Li           1         0.166667   0.166667   0.166667   x 
            x  O            1         0.185368   0.314632   0.083333   x 
            x  O            2         0.314632   0.083333   0.185368   x 
            x  O            3         0.083333   0.185368   0.314632   x 
            x  O            4         0.018701   0.250000   0.147966   x 
            x  O            5         0.250000   0.147966   0.018701   x 
            x  O            6         0.147966   0.018701   0.250000   x 
            x  O            7         0.185368   0.314632   0.416667   x 
            x  O            8         0.314632   0.083333   0.518701   x 
            x  O            9         0.083333   0.185368   0.647966   x 
            x  O           10         0.018701   0.250000   0.481299   x 
            x  O           11         0.250000   0.147966   0.352034   x 
            x  O           12         0.147966   0.018701   0.583333   x 
            x  O           13         0.185368   0.314632   0.750000   x 
            x  O           14         0.314632   0.083333   0.852034   x 
            x  O           15         0.083333   0.185368   0.981299   x 
            x  O           16         0.018701   0.250000   0.814632   x 
            x  O           17         0.250000   0.147966   0.685367   x 
            x  O           18         0.147966   0.018701   0.916667   x 
            x  O           19         0.185368   0.647966   0.083333   x 
            x  O           20         0.314632   0.416667   0.185368   x 
            x  O           21         0.083333   0.518701   0.314632   x 
            x  O           22         0.018701   0.583333   0.147966   x 
            x  O           23         0.250000   0.481299   0.018701   x 
            x  O           24         0.147966   0.352034   0.250000   x 
            x  O           25         0.185368   0.647966   0.416667   x 
            x  O           26         0.314632   0.416667   0.518701   x 
            x  O           27         0.083333   0.518701   0.647966   x 
            x  O           28         0.018701   0.583333   0.481299   x 
            x  O           29         0.250000   0.481299   0.352034   x 
            x  O           30         0.147966   0.352034   0.583333   x 
            x  O           31         0.185368   0.647966   0.750000   x 
            x  O           32         0.314632   0.416667   0.852034   x 
            x  O           33         0.083333   0.518701   0.981299   x 
            x  O           34         0.018701   0.583333   0.814632   x 
            x  O           35         0.250000   0.481299   0.685367   x 
            x  O           36         0.147966   0.352034   0.916667   x 
            x  O           37         0.185368   0.981299   0.083333   x 
            x  O           38         0.314632   0.750000   0.185368   x 
            x  O           39         0.083333   0.852034   0.314632   x 
            x  O           40         0.018701   0.916667   0.147966   x 
            x  O           41         0.250000   0.814633   0.018701   x 
            x  O           42         0.147966   0.685368   0.250000   x 
            x  O           43         0.185368   0.981299   0.416667   x 
            x  O           44         0.314632   0.750000   0.518701   x 
            x  O           45         0.083333   0.852034   0.647966   x 
            x  O           46         0.018701   0.916667   0.481299   x 
            x  O           47         0.250000   0.814633   0.352034   x 
            x  O           48         0.147966   0.685368   0.583333   x 
            x  O           49         0.185368   0.981299   0.750000   x 
            x  O           50         0.314632   0.750000   0.852034   x 
            x  O           51         0.083333   0.852034   0.981299   x 
            x  O           52         0.018701   0.916667   0.814632   x 
            x  O           53         0.250000   0.814633   0.685367   x 
            x  O           54         0.147966   0.685368   0.916667   x 
            x  O           55         0.518701   0.314632   0.083333   x 
            x  O           56         0.647966   0.083333   0.185368   x 
            x  O           57         0.416667   0.185368   0.314632   x 
            x  O           58         0.352034   0.250000   0.147966   x 
            x  O           59         0.583333   0.147966   0.018701   x 
            x  O           60         0.481299   0.018701   0.250000   x 
            x  O           61         0.518701   0.314632   0.416667   x 
            x  O           62         0.647966   0.083333   0.518701   x 
            x  O           63         0.416667   0.185368   0.647966   x 
            x  O           64         0.352034   0.250000   0.481299   x 
            x  O           65         0.583333   0.147966   0.352034   x 
            x  O           66         0.481299   0.018701   0.583333   x 
            x  O           67         0.518701   0.314632   0.750000   x 
            x  O           68         0.647966   0.083333   0.852034   x 
            x  O           69         0.416667   0.185368   0.981299   x 
            x  O           70         0.352034   0.250000   0.814632   x 
            x  O           71         0.583333   0.147966   0.685367   x 
            x  O           72         0.481299   0.018701   0.916667   x 
            x  O           73         0.518701   0.647966   0.083333   x 
            x  O           74         0.647966   0.416667   0.185368   x 
            x  O           75         0.416667   0.518701   0.314632   x 
            x  O           76         0.352034   0.583333   0.147966   x 
            x  O           77         0.583333   0.481299   0.018701   x 
            x  O           78         0.481299   0.352034   0.250000   x 
            x  O           79         0.518701   0.647966   0.416667   x 
            x  O           80         0.647966   0.416667   0.518701   x 
            x  O           81         0.416667   0.518701   0.647966   x 
            x  O           82         0.352034   0.583333   0.481299   x 
            x  O           83         0.583333   0.481299   0.352034   x 
            x  O           84         0.481299   0.352034   0.583333   x 
            x  O           85         0.518701   0.647966   0.750000   x 
            x  O           86         0.647966   0.416667   0.852034   x 
            x  O           87         0.416667   0.518701   0.981299   x 
            x  O           88         0.352034   0.583333   0.814632   x 
            x  O           89         0.583333   0.481299   0.685367   x 
            x  O           90         0.481299   0.352034   0.916667   x 
            x  O           91         0.518701   0.981299   0.083333   x 
            x  O           92         0.647966   0.750000   0.185368   x 
            x  O           93         0.416667   0.852034   0.314632   x 
            x  O           94         0.352034   0.916667   0.147966   x 
            x  O           95         0.583333   0.814633   0.018701   x 
            x  O           96         0.481299   0.685368   0.250000   x 
            x  O           97         0.518701   0.981299   0.416667   x 
            x  O           98         0.647966   0.750000   0.518701   x 
            x  O           99         0.416667   0.852034   0.647966   x 
            x  O          100         0.352034   0.916667   0.481299   x 
            x  O          101         0.583333   0.814633   0.352034   x 
            x  O          102         0.481299   0.685368   0.583333   x 
            x  O          103         0.518701   0.981299   0.750000   x 
            x  O          104         0.647966   0.750000   0.852034   x 
            x  O          105         0.416667   0.852034   0.981299   x 
            x  O          106         0.352034   0.916667   0.814632   x 
            x  O          107         0.583333   0.814633   0.685367   x 
            x  O          108         0.481299   0.685368   0.916667   x 
            x  O          109         0.852034   0.314632   0.083333   x 
            x  O          110         0.981299   0.083333   0.185368   x 
            x  O          111         0.750000   0.185368   0.314632   x 
            x  O          112         0.685368   0.250000   0.147966   x 
            x  O          113         0.916667   0.147966   0.018701   x 
            x  O          114         0.814632   0.018701   0.250000   x 
            x  O          115         0.852034   0.314632   0.416667   x 
            x  O          116         0.981299   0.083333   0.518701   x 
            x  O          117         0.750000   0.185368   0.647966   x 
            x  O          118         0.685368   0.250000   0.481299   x 
            x  O          119         0.916667   0.147966   0.352034   x 
            x  O          120         0.814632   0.018701   0.583333   x 
            x  O          121         0.852034   0.314632   0.750000   x 
            x  O          122         0.981299   0.083333   0.852034   x 
            x  O          123         0.750000   0.185368   0.981299   x 
            x  O          124         0.685368   0.250000   0.814632   x 
            x  O          125         0.916667   0.147966   0.685367   x 
            x  O          126         0.814632   0.018701   0.916667   x 
            x  O          127         0.852034   0.647966   0.083333   x 
            x  O          128         0.981299   0.416667   0.185368   x 
            x  O          129         0.750000   0.518701   0.314632   x 
            x  O          130         0.685368   0.583333   0.147966   x 
            x  O          131         0.916667   0.481299   0.018701   x 
            x  O          132         0.814632   0.352034   0.250000   x 
            x  O          133         0.852034   0.647966   0.416667   x 
            x  O          134         0.981299   0.416667   0.518701   x 
            x  O          135         0.750000   0.518701   0.647966   x 
            x  O          136         0.685368   0.583333   0.481299   x 
            x  O          137         0.916667   0.481299   0.352034   x 
            x  O          138         0.814632   0.352034   0.583333   x 
            x  O          139         0.852034   0.647966   0.750000   x 
            x  O          140         0.981299   0.416667   0.852034   x 
            x  O          141         0.750000   0.518701   0.981299   x 
            x  O          142         0.685368   0.583333   0.814632   x 
            x  O          143         0.916667   0.481299   0.685367   x 
            x  O          144         0.814632   0.352034   0.916667   x 
            x  O          145         0.852034   0.981299   0.083333   x 
            x  O          146         0.981299   0.750000   0.185368   x 
            x  O          147         0.750000   0.852034   0.314632   x 
            x  O          148         0.685368   0.916667   0.147966   x 
            x  O          149         0.916667   0.814633   0.018701   x 
            x  O          150         0.814632   0.685368   0.250000   x 
            x  O          151         0.852034   0.981299   0.416667   x 
            x  O          152         0.981299   0.750000   0.518701   x 
            x  O          153         0.750000   0.852034   0.647966   x 
            x  O          154         0.685368   0.916667   0.481299   x 
            x  O          155         0.916667   0.814633   0.352034   x 
            x  O          156         0.814632   0.685368   0.583333   x 
            x  O          157         0.852034   0.981299   0.750000   x 
            x  O          158         0.981299   0.750000   0.852034   x 
            x  O          159         0.750000   0.852034   0.981299   x 
            x  O          160         0.685368   0.916667   0.814632   x 
            x  O          161         0.916667   0.814633   0.685367   x 
            x  O          162         0.814632   0.685368   0.916667   x 
            x  Al           1         0.049307   0.049307   0.049307   x 
            x  Al           2         0.215974   0.215974   0.215974   x 
            x  Al           3         0.284026   0.284026   0.284026   x 
            x  Al           4         0.117359   0.117359   0.117359   x 
            x  Al           5         0.049307   0.049307   0.382641   x 
            x  Al           6         0.215974   0.215974   0.549307   x 
            x  Al           7         0.284026   0.284026   0.617359   x 
            x  Al           8         0.117359   0.117359   0.450693   x 
            x  Al           9         0.049307   0.049307   0.715974   x 
            x  Al          10         0.215974   0.215974   0.882641   x 
            x  Al          11         0.284026   0.284026   0.950693   x 
            x  Al          12         0.117359   0.117359   0.784026   x 
            x  Al          13         0.049307   0.382641   0.049307   x 
            x  Al          14         0.215974   0.549307   0.215974   x 
            x  Al          15         0.284026   0.617359   0.284026   x 
            x  Al          16         0.117359   0.450693   0.117359   x 
            x  Al          17         0.049307   0.382641   0.382641   x 
            x  Al          18         0.215974   0.549307   0.549307   x 
            x  Al          19         0.284026   0.617359   0.617359   x 
            x  Al          20         0.117359   0.450693   0.450693   x 
            x  Al          21         0.049307   0.382641   0.715974   x 
            x  Al          22         0.215974   0.549307   0.882641   x 
            x  Al          23         0.284026   0.617359   0.950693   x 
            x  Al          24         0.117359   0.450693   0.784026   x 
            x  Al          25         0.049307   0.715974   0.049307   x 
            x  Al          26         0.215974   0.882641   0.215974   x 
            x  Al          27         0.284026   0.950693   0.284026   x 
            x  Al          28         0.117359   0.784026   0.117359   x 
            x  Al          29         0.049307   0.715974   0.382641   x 
            x  Al          30         0.215974   0.882641   0.549307   x 
            x  Al          31         0.284026   0.950693   0.617359   x 
            x  Al          32         0.117359   0.784026   0.450693   x 
            x  Al          33         0.049307   0.715974   0.715974   x 
            x  Al          34         0.215974   0.882641   0.882641   x 
            x  Al          35         0.284026   0.950693   0.950693   x 
            x  Al          36         0.117359   0.784026   0.784026   x 
            x  Al          37         0.382641   0.049307   0.049307   x 
            x  Al          38         0.549307   0.215974   0.215974   x 
            x  Al          39         0.617359   0.284026   0.284026   x 
            x  Al          40         0.450693   0.117359   0.117359   x 
            x  Al          41         0.382641   0.049307   0.382641   x 
            x  Al          42         0.549307   0.215974   0.549307   x 
            x  Al          43         0.617359   0.284026   0.617359   x 
            x  Al          44         0.450693   0.117359   0.450693   x 
            x  Al          45         0.382641   0.049307   0.715974   x 
            x  Al          46         0.549307   0.215974   0.882641   x 
            x  Al          47         0.617359   0.284026   0.950693   x 
            x  Al          48         0.450693   0.117359   0.784026   x 
            x  Al          49         0.382641   0.382641   0.049307   x 
            x  Al          50         0.549307   0.549307   0.215974   x 
            x  Al          51         0.617359   0.617359   0.284026   x 
            x  Al          52         0.450693   0.450693   0.117359   x 
            x  Al          53         0.382641   0.382641   0.382641   x 
            x  Al          54         0.549307   0.549307   0.549307   x 
            x  Al          55         0.617359   0.617359   0.617359   x 
            x  Al          56         0.450693   0.450693   0.450693   x 
            x  Al          57         0.382641   0.382641   0.715974   x 
            x  Al          58         0.549307   0.549307   0.882641   x 
            x  Al          59         0.617359   0.617359   0.950693   x 
            x  Al          60         0.450693   0.450693   0.784026   x 
            x  Al          61         0.382641   0.715974   0.049307   x 
            x  Al          62         0.549307   0.882641   0.215974   x 
            x  Al          63         0.617359   0.950693   0.284026   x 
            x  Al          64         0.450693   0.784026   0.117359   x 
            x  Al          65         0.382641   0.715974   0.382641   x 
            x  Al          66         0.549307   0.882641   0.549307   x 
            x  Al          67         0.617359   0.950693   0.617359   x 
            x  Al          68         0.450693   0.784026   0.450693   x 
            x  Al          69         0.382641   0.715974   0.715974   x 
            x  Al          70         0.549307   0.882641   0.882641   x 
            x  Al          71         0.617359   0.950693   0.950693   x 
            x  Al          72         0.450693   0.784026   0.784026   x 
            x  Al          73         0.715974   0.049307   0.049307   x 
            x  Al          74         0.882641   0.215974   0.215974   x 
            x  Al          75         0.950693   0.284026   0.284026   x 
            x  Al          76         0.784026   0.117359   0.117359   x 
            x  Al          77         0.715974   0.049307   0.382641   x 
            x  Al          78         0.882641   0.215974   0.549307   x 
            x  Al          79         0.950693   0.284026   0.617359   x 
            x  Al          80         0.784026   0.117359   0.450693   x 
            x  Al          81         0.715974   0.049307   0.715974   x 
            x  Al          82         0.882641   0.215974   0.882641   x 
            x  Al          83         0.950693   0.284026   0.950693   x 
            x  Al          84         0.784026   0.117359   0.784026   x 
            x  Al          85         0.715974   0.382641   0.049307   x 
            x  Al          86         0.882641   0.549307   0.215974   x 
            x  Al          87         0.950693   0.617359   0.284026   x 
            x  Al          88         0.784026   0.450693   0.117359   x 
            x  Al          89         0.715974   0.382641   0.382641   x 
            x  Al          90         0.882641   0.549307   0.549307   x 
            x  Al          91         0.950693   0.617359   0.617359   x 
            x  Al          92         0.784026   0.450693   0.450693   x 
            x  Al          93         0.715974   0.382641   0.715974   x 
            x  Al          94         0.882641   0.549307   0.882641   x 
            x  Al          95         0.950693   0.617359   0.950693   x 
            x  Al          96         0.784026   0.450693   0.784026   x 
            x  Al          97         0.715974   0.715974   0.049307   x 
            x  Al          98         0.882641   0.882641   0.215974   x 
            x  Al          99         0.950693   0.950693   0.284026   x 
            x  Al         100         0.784026   0.784026   0.117359   x 
            x  Al         101         0.715974   0.715974   0.382641   x 
            x  Al         102         0.882641   0.882641   0.549307   x 
            x  Al         103         0.950693   0.950693   0.617359   x 
            x  Al         104         0.784026   0.784026   0.450693   x 
            x  Al         105         0.715974   0.715974   0.715974   x 
            x  Al         106         0.882641   0.882641   0.882641   x 
            x  Al         107         0.950693   0.950693   0.950693   x 
            x  Al         108         0.784026   0.784026   0.784026   x 
            xxxxxxxxxxxxxxxxxxxxxxxxxxxxxxxxxxxxxxxxxxxxxxxxxxxxxxxxxxxx
 
 
                         No user defined ionic velocities
 
                           -------------------------------
                                   Details of Species
                           -------------------------------
 
                               Mass of species in AMU
                                    Li    6.9410000
                                    O   15.9994000
                                    Al   26.9815400
 
                          Electric Quadrupole Moment (Barn)
                                    Li   -0.0401000 Isotope  7
                                    O   -0.0255800 Isotope 17
                                    Al    0.1466000 Isotope 27
 
                          Files used for pseudopotentials:
                                    Li 1|1.0|14|16|18|10U:20(qc=7)
                                    O 2|1.1|17|20|23|20:21(qc=8)
                                    Al 3|2.2|2.2|1.4|4|5|5|30:31:32U2U2
 
                           -------------------------------
                              k-Points For BZ Sampling
                           -------------------------------
                       MP grid size for SCF calculation is  1  1  1
                            with an offset of   0.000  0.000  0.000
                       Number of kpoints used =             1
 
                           -------------------------------
                               Symmetry and Constraints
                           -------------------------------
 
                      Maximum deviation from symmetry =  0.00000         ANG
 
                      Number of symmetry operations   =           1
                      Number of ionic constraints     =           3
                      Point group of crystal =     1: C1, 1, 1
                      Space group of crystal =   148: R-3, -R 3
 
             Set iprint > 1 for details on symmetry rotations/translations
 
                         Centre of mass is constrained
             Set iprint > 1 for details of linear ionic constraints
 
                         Number of cell constraints= 6
                         Cell constraints are:  0 0 0 0 0 0
 
                         External pressure/stress (GPa)
                          0.00000   0.00000   0.00000
                                    0.00000   0.00000
                                              0.00000
  
+---------------- MEMORY AND SCRATCH DISK ESTIMATES PER PROCESS --------------+
|                                                     Memory          Disk    |
| Baseline code, static data and system overhead     3844.0 MB         0.0 MB |
| BLAS internal memory storage                          0.0 MB         0.0 MB |
| Model and support data                              370.4 MB         0.0 MB |
| Electronic energy minimisation requirements          43.8 MB         0.0 MB |
| Force calculation requirements                        2.4 MB         0.0 MB |
|                                               ----------------------------- |
| Approx. total storage required per process         4258.2 MB         0.0 MB |
|                                                                             |
| Requirements will fluctuate during execution and may exceed these estimates |
+-----------------------------------------------------------------------------+
Calculating total energy with cut-off of  700.000 eV.
------------------------------------------------------------------------ <-- SCF
SCF loop      Energy           Fermi           Energy gain       Timer   <-- SCF
                               energy          per atom          (sec)   <-- SCF
------------------------------------------------------------------------ <-- SCF
Initial  -6.13360210E+004  0.00000000E+000                        10.81  <-- SCF
      1  -7.67238383E+004  1.04989708E+001   5.67816138E+001      26.28  <-- SCF
      2  -8.35913352E+004  8.59113885E+000   2.53413169E+001      40.32  <-- SCF
      3  -8.38082477E+004  8.54405981E+000   8.00415055E-001      54.59  <-- SCF
      4  -8.36952640E+004  1.00552701E+001  -4.16914135E-001      70.86  <-- SCF
      5  -8.36100477E+004  9.47405518E+000  -3.14451245E-001      87.90  <-- SCF
      6  -8.36103272E+004  9.51319406E+000   1.03129857E-003     104.95  <-- SCF
      7  -8.36103774E+004  9.52966450E+000   1.85407125E-004     120.08  <-- SCF
      8  -8.36103742E+004  9.53155208E+000  -1.18236252E-005     134.89  <-- SCF
      9  -8.36103696E+004  9.52987324E+000  -1.71094805E-005     146.76  <-- SCF
     10  -8.36103676E+004  9.52818075E+000  -7.17321265E-006     156.68  <-- SCF
     11  -8.36103656E+004  9.52411089E+000  -7.62617543E-006     167.47  <-- SCF
     12  -8.36103655E+004  9.52227358E+000  -3.58551535E-007     177.09  <-- SCF
------------------------------------------------------------------------ <-- SCF
 
Final energy, E             =  -83610.36545704     eV
Final free energy (E-TS)    =  -83610.36545704     eV
(energies not corrected for finite basis set)
 
NB est. 0K energy (E-0.5TS)      =  -83610.36545704     eV
 

Writing analysis data to al2o3_xc-PBESOL_c-0700_k-1x1x1_sc-3x3x3_site-0_geom.castep_bin

Writing model to al2o3_xc-PBESOL_c-0700_k-1x1x1_sc-3x3x3_site-0_geom.check
 
+---------------- MEMORY AND SCRATCH DISK ESTIMATES PER PROCESS --------------+
|                                                     Memory          Disk    |
| Model and support data                              380.9 MB         0.0 MB |
| Electronic energy minimisation requirements          43.8 MB         0.0 MB |
| Geometry minimisation requirements                   54.9 MB         0.0 MB |
|                                               ----------------------------- |
| Approx. total storage required per process          479.6 MB         0.0 MB |
|                                                                             |
| Requirements will fluctuate during execution and may exceed these estimates |
+-----------------------------------------------------------------------------+
 
 
 ************************************** Forces **************************************
 *                                                                                  *
 *                           Cartesian components (eV/A)                            *
 * -------------------------------------------------------------------------------- *
 *                         x                    y                    z              *
 *                                                                                  *
 * Li              1     -0.00004             -0.00002              0.00004         *
 * O               1      0.80121             -0.90518             -0.68559         *
 * O               2     -1.18499             -0.24060             -0.68601         *
 * O               3      0.38342              1.14678             -0.68611         *
 * O               4      1.18561              0.24188              0.68615         *
 * O               5     -0.38320             -1.14552              0.68562         *
 * O               6     -0.80102              0.90589              0.68587         *
 * O               7     -0.00008              0.06488             -0.15578         *
 * O               8     -0.00748              0.06016             -0.07876         *
 * O               9      0.00561              0.00619             -0.03676         *
 * O              10      0.16277              0.17790             -0.26957         *
 * O              11     -0.18295              0.12663             -0.47787         *
 * O              12     -0.00242              0.15118             -0.14327         *
 * O              13      0.00285             -0.15135              0.14323         *
 * O              14     -0.16280             -0.17753              0.26911         *
 * O              15      0.18318             -0.12653              0.47733         *
 * O              16      0.00740             -0.06020              0.07861         *
 * O              17     -0.00580             -0.00618              0.03749         *
 * O              18     -0.00002             -0.06458              0.15624         *
 * O              19      0.00194             -0.00770             -0.03732         *
 * O              20      0.05626             -0.03266             -0.15602         *
 * O              21      0.05585             -0.02348             -0.07830         *
 * O              22      0.13223             -0.07297             -0.14364         *
 * O              23      0.07271             -0.23018             -0.26981         *
 * O              24      0.20111              0.09522             -0.47751         *
 * O              25     -0.08608              0.04850              0.04124         *
 * O              26      0.00440              0.00564              0.01715         *
 * O              27      0.04331             -0.05188              0.03326         *
 * O              28     -0.00843             -0.00831              0.00568         *
 * O              29     -0.01984              0.02425             -0.02246         *
 * O              30      0.04211             -0.01350              0.00353         *
 * O              31     -0.00490             -0.03878             -0.01089         *
 * O              32      0.03800             -0.30925             -0.08836         *
 * O              33      0.37849             -0.30461             -0.03587         *
 * O              34      0.07076             -0.11337              0.02202         *
 * O              35      0.02854             -0.08963              0.02186         *
 * O              36      0.32996             -0.51654              0.27955         *
 * O              37     -0.20099             -0.09465              0.47768         *
 * O              38     -0.13197              0.07335              0.14364         *
 * O              39     -0.07281              0.23019              0.27006         *
 * O              40     -0.05602              0.03263              0.15587         *
 * O              41     -0.05588              0.02349              0.07873         *
 * O              42     -0.00219              0.00787              0.03733         *
 * O              43     -0.33022              0.51665             -0.27935         *
 * O              44     -0.07039              0.11332             -0.02230         *
 * O              45     -0.02792              0.08944             -0.02167         *
 * O              46     -0.03757              0.30959              0.08839         *
 * O              47     -0.37839              0.30455              0.03589         *
 * O              48      0.00588              0.03885              0.01129         *
 * O              49     -0.04171              0.01319             -0.00363         *
 * O              50      0.00845              0.00819             -0.00596         *
 * O              51      0.02042             -0.02431              0.02236         *
 * O              52     -0.00418             -0.00597             -0.01695         *
 * O              53     -0.04310              0.05151             -0.03324         *
 * O              54      0.08691             -0.04844             -0.04091         *
 * O              55     -0.04793             -0.03622             -0.07830         *
 * O              56     -0.00821              0.00179             -0.03764         *
 * O              57     -0.05666             -0.03206             -0.15584         *
 * O              58     -0.01812             -0.22146             -0.47762         *
 * O              59     -0.12934             -0.07764             -0.14373         *
 * O              60     -0.23558              0.05221             -0.26953         *
 * O              61     -0.00693              0.00097              0.01713         *
 * O              62      0.02301              0.06345              0.03296         *
 * O              63      0.00142             -0.09893              0.04100         *
 * O              64     -0.01107             -0.02948             -0.02287         *
 * O              65     -0.00907              0.04319              0.00396         *
 * O              66      0.01128             -0.00300              0.00544         *
 * O              67     -0.06287             -0.11811             -0.02225         *
 * O              68     -0.06358             -0.06929             -0.02118         *
 * O              69     -0.28227             -0.54426             -0.27903         *
 * O              70     -0.07469             -0.48010              0.03579         *
 * O              71     -0.03623             -0.01491              0.01139         *
 * O              72     -0.24956             -0.18757              0.08829         *
 * O              73     -0.06595             -0.01172              0.03301         *
 * O              74      0.08439              0.04986              0.04015         *
 * O              75      0.00272             -0.00694              0.01738         *
 * O              76     -0.03171             -0.02893              0.00350         *
 * O              77     -0.00313              0.01215              0.00515         *
 * O              78      0.03146              0.00518             -0.02248         *
 * O              79     -0.08756              0.03920             -0.02135         *
 * O              80      0.07787              0.05647             -0.02118         *
 * O              81      0.01013             -0.09585             -0.02166         *
 * O              82     -0.06481             -0.00536              0.02100         *
 * O              83      0.02759              0.05787              0.02053         *
 * O              84      0.03700             -0.05351              0.02080         *
 * O              85     -0.03405             -0.00853             -0.01010         *
 * O              86      0.01825             -0.00461             -0.01992         *
 * O              87      0.00041             -0.07879             -0.06359         *
 * O              88      0.00992             -0.11232             -0.05718         *
 * O              89     -0.01410             -0.00200             -0.02872         *
 * O              90      0.00695             -0.10324             -0.09377         *
 * O              91     -0.45355             -0.17500             -0.03559         *
 * O              92     -0.03089              0.02438             -0.01108         *
 * O              93     -0.28715              0.12288             -0.08857         *
 * O              94     -0.61208             -0.02772              0.27886         *
 * O              95     -0.13306             -0.00486              0.02198         *
 * O              96     -0.09151              0.02035              0.02165         *
 * O              97     -0.06890              0.03960             -0.06378         *
 * O              98      0.00967              0.03350             -0.01029         *
 * O              99     -0.01296             -0.01332             -0.01983         *
 * O             100     -0.09308              0.04539             -0.09373         *
 * O             101     -0.10268              0.04772             -0.05755         *
 * O             102      0.00513              0.01343             -0.02955         *
 * O             103     -0.09238             -0.06547              0.05681         *
 * O             104     -0.00892              0.01145              0.02906         *
 * O             105     -0.08565             -0.05798              0.09353         *
 * O             106     -0.06880             -0.04020              0.06393         *
 * O             107     -0.02442              0.02544              0.01040         *
 * O             108      0.00550             -0.01755              0.01991         *
 * O             109      0.23562             -0.05210              0.26954         *
 * O             110      0.01795              0.22134              0.47789         *
 * O             111      0.12962              0.07775              0.14338         *
 * O             112      0.00792             -0.00169              0.03755         *
 * O             113      0.05620              0.03217              0.15447         *
 * O             114      0.04785              0.03609              0.07872         *
 * O             115      0.24914              0.18725             -0.08866         *
 * O             116      0.07431              0.48000             -0.03600         *
 * O             117      0.03627              0.01477             -0.01130         *
 * O             118      0.06359              0.06903              0.02149         *
 * O             119      0.28221              0.54398              0.27919         *
 * O             120      0.06296              0.11816              0.02218         *
 * O             121     -0.01186              0.00303             -0.00531         *
 * O             122      0.01109              0.02949              0.02249         *
 * O             123      0.00901             -0.04260             -0.00382         *
 * O             124     -0.02275             -0.06321             -0.03303         *
 * O             125     -0.00150              0.09793             -0.04034         *
 * O             126      0.00721             -0.00151             -0.01715         *
 * O             127      0.09187             -0.02026             -0.02175         *
 * O             128      0.61241              0.02740             -0.27934         *
 * O             129      0.13314              0.00417             -0.02180         *
 * O             130      0.03096             -0.02425              0.01144         *
 * O             131      0.28678             -0.12214              0.08840         *
 * O             132      0.45275              0.17543              0.03576         *
 * O             133     -0.00552              0.01736             -0.02012         *
 * O             134      0.06869              0.03962             -0.06354         *
 * O             135      0.02426             -0.02518             -0.01040         *
 * O             136      0.00867             -0.01157             -0.02951         *
 * O             137      0.08538              0.05704             -0.09365         *
 * O             138      0.09212              0.06531             -0.05729         *
 * O             139     -0.00512             -0.01315              0.02914         *
 * O             140      0.09291             -0.04591              0.09348         *
 * O             141      0.10197             -0.04712              0.05640         *
 * O             142     -0.00979             -0.03338              0.00986         *
 * O             143      0.01316              0.01297              0.01954         *
 * O             144      0.06811             -0.03959              0.06302         *
 * O             145     -0.03135             -0.00507              0.02222         *
 * O             146      0.03209              0.02906             -0.00353         *
 * O             147      0.00255             -0.01133             -0.00550         *
 * O             148     -0.08527             -0.05071             -0.04134         *
 * O             149     -0.00285              0.00697             -0.01708         *
 * O             150      0.06529              0.01148             -0.03290         *
 * O             151     -0.00745              0.10340              0.09376         *
 * O             152     -0.01035              0.11282              0.05740         *
 * O             153      0.01397              0.00191              0.02913         *
 * O             154     -0.01823              0.00477              0.02013         *
 * O             155     -0.00068              0.07923              0.06376         *
 * O             156      0.03380              0.00849              0.01018         *
 * O             157     -0.03664              0.05313             -0.02046         *
 * O             158      0.06481              0.00507             -0.02052         *
 * O             159     -0.02782             -0.05895             -0.02001         *
 * O             160     -0.07760             -0.05635              0.02128         *
 * O             161     -0.00950              0.09565              0.02145         *
 * O             162      0.08779             -0.03929              0.02143         *
 * Al              1     -0.00009             -0.00005             -0.47015         *
 * Al              2      0.00011              0.00000              5.80067         *
 * Al              3      0.00019              0.00004              0.47009         *
 * Al              4     -0.00003              0.00005             -5.80073         *
 * Al              5     -0.04648             -1.69993             -0.12765         *
 * Al              6      0.00598             -0.03660              0.08168         *
 * Al              7      0.01006              0.09901             -0.08323         *
 * Al              8      0.18915             -0.72890              0.72842         *
 * Al              9     -0.01020             -0.09905              0.08338         *
 * Al             10     -0.18916              0.72895             -0.72834         *
 * Al             11      0.04650              1.69995              0.12764         *
 * Al             12     -0.00589              0.03652             -0.08163         *
 * Al             13     -1.44889              0.89032             -0.12756         *
 * Al             14     -0.03437              0.01306              0.08174         *
 * Al             15      0.08081             -0.05832             -0.08342         *
 * Al             16     -0.72585              0.20087              0.72833         *
 * Al             17     -0.22400             -0.12632              0.32956         *
 * Al             18      0.01890              0.00924             -0.07291         *
 * Al             19      0.02334              0.00709              0.00633         *
 * Al             20     -0.04735             -0.01448              0.07736         *
 * Al             21     -0.07330              0.07590             -0.11807         *
 * Al             22     -0.14388              0.31097              0.16688         *
 * Al             23     -0.05901              0.12612              0.14475         *
 * Al             24     -0.20805              0.31239             -0.20708         *
 * Al             25     -0.08086              0.05812              0.08337         *
 * Al             26      0.72569             -0.20078             -0.72829         *
 * Al             27      1.44904             -0.89034              0.12781         *
 * Al             28      0.03426             -0.01312             -0.08170         *
 * Al             29      0.05912             -0.12620             -0.14466         *
 * Al             30      0.20817             -0.31241              0.20719         *
 * Al             31      0.07323             -0.07603              0.11814         *
 * Al             32      0.14370             -0.31089             -0.16697         *
 * Al             33     -0.02343             -0.00736             -0.00604         *
 * Al             34      0.04725              0.01462             -0.07738         *
 * Al             35      0.22383              0.12619             -0.32962         *
 * Al             36     -0.01862             -0.00918              0.07277         *
 * Al             37      1.49548              0.80969             -0.12754         *
 * Al             38      0.02867              0.02341              0.08163         *
 * Al             39     -0.09094             -0.04058             -0.08322         *
 * Al             40      0.53672              0.52813              0.72836         *
 * Al             41      0.22135             -0.13082              0.32951         *
 * Al             42     -0.01718              0.01162             -0.07287         *
 * Al             43     -0.01805              0.01662              0.00617         *
 * Al             44      0.03627             -0.03373              0.07741         *
 * Al             45      0.07957              0.11429             -0.14481         *
 * Al             46      0.16647              0.33651              0.20716         *
 * Al             47      0.02924              0.10138              0.11817         *
 * Al             48      0.19748              0.28015             -0.16692         *
 * Al             49      0.00271              0.25709              0.32950         *
 * Al             50     -0.00097             -0.02079             -0.07286         *
 * Al             51     -0.00535             -0.02406              0.00620         *
 * Al             52      0.01089              0.04825              0.07741         *
 * Al             53      0.00002             -0.00014             -0.00731         *
 * Al             54     -0.00001             -0.00006              0.07969         *
 * Al             55      0.00000             -0.00018              0.05881         *
 * Al             56      0.00015              0.00013             -0.05888         *
 * Al             57     -0.02024              0.29203              0.01600         *
 * Al             58      0.00658              0.05781              0.01997         *
 * Al             59     -0.01402              0.03582             -0.07368         *
 * Al             60      0.01798              0.18979              0.13774         *
 * Al             61      0.10266              0.02534             -0.11831         *
 * Al             62      0.34107             -0.03117              0.16696         *
 * Al             63      0.13860             -0.01185              0.14487         *
 * Al             64      0.37472              0.02411             -0.20698         *
 * Al             65      0.26307             -0.12849              0.01616         *
 * Al             66      0.04659             -0.03467              0.01979         *
 * Al             67      0.03799             -0.00546             -0.07353         *
 * Al             68      0.15537             -0.11027              0.13772         *
 * Al             69      0.02392              0.03037              0.07366         *
 * Al             70      0.17318              0.07951             -0.13753         *
 * Al             71      0.24285              0.16356             -0.01602         *
 * Al             72      0.05340              0.02295             -0.01988         *
 * Al             73      0.09071              0.04071              0.08357         *
 * Al             74     -0.53665             -0.52825             -0.72840         *
 * Al             75     -1.49545             -0.80961              0.12760         *
 * Al             76     -0.02856             -0.02316             -0.08150         *
 * Al             77     -0.02927             -0.10134             -0.11806         *
 * Al             78     -0.19741             -0.28000              0.16714         *
 * Al             79     -0.07949             -0.11428              0.14478         *
 * Al             80     -0.16670             -0.33644             -0.20717         *
 * Al             81      0.01805             -0.01680             -0.00624         *
 * Al             82     -0.03617              0.03345             -0.07722         *
 * Al             83     -0.22130              0.13082             -0.32954         *
 * Al             84      0.01736             -0.01135              0.07292         *
 * Al             85     -0.13869              0.01179             -0.14460         *
 * Al             86     -0.37476             -0.02397              0.20710         *
 * Al             87     -0.10263             -0.02532              0.11820         *
 * Al             88     -0.34131              0.03091             -0.16704         *
 * Al             89     -0.24304             -0.16367              0.01582         *
 * Al             90     -0.05334             -0.02326              0.01994         *
 * Al             91     -0.02394             -0.03046             -0.07370         *
 * Al             92     -0.17315             -0.07935              0.13771         *
 * Al             93     -0.03832              0.00551              0.07360         *
 * Al             94     -0.15542              0.11026             -0.13785         *
 * Al             95     -0.26317              0.12855             -0.01581         *
 * Al             96     -0.04672              0.03484             -0.01962         *
 * Al             97      0.00546              0.02390             -0.00629         *
 * Al             98     -0.01095             -0.04818             -0.07742         *
 * Al             99     -0.00279             -0.25689             -0.32948         *
 * Al            100      0.00155              0.02070              0.07292         *
 * Al            101      0.01431             -0.03559              0.07367         *
 * Al            102     -0.01774             -0.18972             -0.13766         *
 * Al            103      0.02025             -0.29229             -0.01592         *
 * Al            104     -0.00667             -0.05774             -0.01998         *
 * Al            105      0.00028             -0.00014             -0.05881         *
 * Al            106      0.00012              0.00015              0.05877         *
 * Al            107      0.00003              0.00002              0.00753         *
 * Al            108     -0.00001              0.00006             -0.07948         *
 *                                                                                  *
 ************************************************************************************
 LBFGS: finished iteration     0 with enthalpy= -8.36103655E+004 eV
  
 +-----------+-----------------+-----------------+------------+-----+ <-- LBFGS
 | Parameter |      value      |    tolerance    |    units   | OK? | <-- LBFGS
 +-----------+-----------------+-----------------+------------+-----+ <-- LBFGS
 |  dE/ion   |   0.000000E+000 |   1.000000E-005 |         eV | No  | <-- LBFGS
 |  |F|max   |   5.800734E+000 |   1.000000E-002 |       eV/A | No  | <-- LBFGS
 |  |dR|max  |   0.000000E+000 |   1.000000E-003 |          A | No  | <-- LBFGS
 +-----------+-----------------+-----------------+------------+-----+ <-- LBFGS
  

================================================================================
 Starting LBFGS iteration          1 ...
================================================================================
  
 +------------+-------------+-------------+-----------------+ <-- min LBFGS
 |    Step    |   lambda    |   F.delta'  |    enthalpy     | <-- min LBFGS
 +------------+-------------+-------------+-----------------+ <-- min LBFGS
 |  previous  |    0.000000 |    5.895965 |   -83610.365457 | <-- min LBFGS
 +------------+-------------+-------------+-----------------+ <-- min LBFGS
  

--------------------------------------------------------------------------------
 LBFGS: starting iteration         1 with trial guess (lambda=  1.000000)
--------------------------------------------------------------------------------
 
                           -------------------------------
                                     Cell Contents
                           -------------------------------
 
            xxxxxxxxxxxxxxxxxxxxxxxxxxxxxxxxxxxxxxxxxxxxxxxxxxxxxxxxxxxxxxxxx
            x  Element         Atom        Fractional coordinates of atoms  x
            x                 Number           u          v          w      x
            x---------------------------------------------------------------x
            x  Li                1         0.166667   0.166667   0.166667   x
            x  O                 1         0.185377   0.314104   0.083600   x
            x  O                 2         0.314103   0.083600   0.185376   x
            x  O                 3         0.083600   0.185377   0.314103   x
            x  O                 4         0.019230   0.249733   0.147956   x
            x  O                 5         0.249734   0.147957   0.019229   x
            x  O                 6         0.147957   0.019230   0.249733   x
            x  O                 7         0.185361   0.314626   0.416622   x
            x  O                 8         0.314632   0.083338   0.518668   x
            x  O                 9         0.083332   0.185362   0.647959   x
            x  O                10         0.018757   0.249947   0.481197   x
            x  O                11         0.249904   0.147993   0.351926   x
            x  O                12         0.147977   0.018713   0.583257   x
            x  O                13         0.185357   0.314620   0.750076   x
            x  O                14         0.314576   0.083387   0.852136   x
            x  O                15         0.083429   0.185340   0.981407   x
            x  O                16         0.018701   0.249995   0.814665   x
            x  O                17         0.250001   0.147971   0.685374   x
            x  O                18         0.147972   0.018708   0.916711   x
            x  O                19         0.185362   0.647959   0.083332   x
            x  O                20         0.314626   0.416622   0.185361   x
            x  O                21         0.083338   0.518668   0.314632   x
            x  O                22         0.018714   0.583257   0.147976   x
            x  O                23         0.249947   0.481197   0.018757   x
            x  O                24         0.147993   0.351927   0.249904   x
            x  O                25         0.185353   0.648009   0.416653   x
            x  O                26         0.314637   0.416668   0.518701   x
            x  O                27         0.083342   0.518680   0.647990   x
            x  O                28         0.018697   0.583335   0.481303   x
            x  O                29         0.249995   0.481308   0.352022   x
            x  O                30         0.147978   0.352018   0.583339   x
            x  O                31         0.185357   0.647958   0.750014   x
            x  O                32         0.314574   0.416583   0.852143   x
            x  O                33         0.083397   0.518510   0.981413   x
            x  O                34         0.018705   0.583290   0.814679   x
            x  O                35         0.249995   0.481275   0.685405   x
            x  O                36         0.148011   0.351858   0.916901   x
            x  O                37         0.185341   0.981407   0.083429   x
            x  O                38         0.314620   0.750076   0.185357   x
            x  O                39         0.083387   0.852137   0.314576   x
            x  O                40         0.018708   0.916711   0.147972   x
            x  O                41         0.249995   0.814666   0.018701   x
            x  O                42         0.147971   0.685375   0.250002   x
            x  O                43         0.185323   0.981476   0.416432   x
            x  O                44         0.314628   0.750043   0.518654   x
            x  O                45         0.083339   0.852058   0.647928   x
            x  O                46         0.018759   0.916750   0.481190   x
            x  O                47         0.249936   0.814823   0.351920   x
            x  O                48         0.147977   0.685375   0.583320   x
            x  O                49         0.185356   0.981315   0.749994   x
            x  O                50         0.314636   0.749998   0.852030   x
            x  O                51         0.083338   0.852026   0.981311   x
            x  O                52         0.018696   0.916665   0.814633   x
            x  O                53         0.249991   0.814653   0.685343   x
            x  O                54         0.147980   0.685324   0.916680   x
            x  O                55         0.518668   0.314632   0.083338   x
            x  O                56         0.647959   0.083332   0.185362   x
            x  O                57         0.416622   0.185361   0.314626   x
            x  O                58         0.351927   0.249904   0.147993   x
            x  O                59         0.583257   0.147977   0.018713   x
            x  O                60         0.481197   0.018757   0.249947   x
            x  O                61         0.518701   0.314637   0.416668   x
            x  O                62         0.647990   0.083342   0.518680   x
            x  O                63         0.416653   0.185353   0.648009   x
            x  O                64         0.352022   0.249995   0.481308   x
            x  O                65         0.583339   0.147978   0.352018   x
            x  O                66         0.481303   0.018697   0.583335   x
            x  O                67         0.518654   0.314628   0.750043   x
            x  O                68         0.647928   0.083339   0.852059   x
            x  O                69         0.416432   0.185323   0.981476   x
            x  O                70         0.351921   0.249936   0.814823   x
            x  O                71         0.583320   0.147977   0.685375   x
            x  O                72         0.481190   0.018759   0.916750   x
            x  O                73         0.518681   0.647990   0.083342   x
            x  O                74         0.648009   0.416653   0.185353   x
            x  O                75         0.416668   0.518701   0.314637   x
            x  O                76         0.352018   0.583339   0.147977   x
            x  O                77         0.583335   0.481303   0.018697   x
            x  O                78         0.481308   0.352022   0.249995   x
            x  O                79         0.518677   0.648000   0.416649   x
            x  O                80         0.648000   0.416649   0.518677   x
            x  O                81         0.416649   0.518676   0.648000   x
            x  O                82         0.352014   0.583357   0.481304   x
            x  O                83         0.583356   0.481304   0.352014   x
            x  O                84         0.481304   0.352014   0.583357   x
            x  O                85         0.518687   0.647974   0.750002   x
            x  O                86         0.647969   0.416657   0.852034   x
            x  O                87         0.416644   0.518678   0.981322   x
            x  O                88         0.352009   0.583301   0.814669   x
            x  O                89         0.583325   0.481300   0.685365   x
            x  O                90         0.481270   0.352000   0.916695   x
            x  O                91         0.518510   0.981413   0.083397   x
            x  O                92         0.647959   0.750014   0.185357   x
            x  O                93         0.416583   0.852144   0.314574   x
            x  O                94         0.351858   0.916901   0.148011   x
            x  O                95         0.583290   0.814679   0.018705   x
            x  O                96         0.481275   0.685405   0.249995   x
            x  O                97         0.518678   0.981322   0.416643   x
            x  O                98         0.647974   0.750002   0.518687   x
            x  O                99         0.416657   0.852034   0.647968   x
            x  O               100         0.352000   0.916695   0.481270   x
            x  O               101         0.583301   0.814669   0.352008   x
            x  O               102         0.481300   0.685365   0.583324   x
            x  O               103         0.518664   0.981324   0.750032   x
            x  O               104         0.647968   0.750009   0.852033   x
            x  O               105         0.416638   0.852063   0.981333   x
            x  O               106         0.352011   0.916690   0.814656   x
            x  O               107         0.583331   0.814647   0.685359   x
            x  O               108         0.481300   0.685365   0.916676   x
            x  O               109         0.852137   0.314576   0.083387   x
            x  O               110         0.981407   0.083429   0.185341   x
            x  O               111         0.750076   0.185357   0.314620   x
            x  O               112         0.685375   0.250002   0.147971   x
            x  O               113         0.916711   0.147972   0.018707   x
            x  O               114         0.814665   0.018702   0.249996   x
            x  O               115         0.852143   0.314574   0.416583   x
            x  O               116         0.981413   0.083397   0.518511   x
            x  O               117         0.750014   0.185357   0.647959   x
            x  O               118         0.685405   0.249995   0.481275   x
            x  O               119         0.916901   0.148011   0.351858   x
[...]
             O 70  -- O 72                  -0.04        2.86470
             O 46  -- O 47                  -0.04        2.86470
             O 40  -- O 42                  -0.04        2.86651
             O 19  -- O 20                  -0.04        2.86651
             O 112 -- O 113                 -0.04        2.86652
             O 17  -- O 18                  -0.04        2.86652
             O 7   -- O 9                   -0.04        2.86652
             O 56  -- O 57                  -0.04        2.86652
             O 10  -- O 137                 -0.04        2.86925
             O 14  -- O 105                 -0.04        2.86925
             O 39  -- O 151                 -0.04        2.86925
             O 23  -- O 90                  -0.04        2.86925
             O 109 -- O 140                 -0.04        2.86925
             O 60  -- O 100                 -0.04        2.86925
             O 21  -- O 146                 -0.04        2.87071
             O 41  -- O 76                  -0.04        2.87071
             O 8   -- O 49                  -0.04        2.87072
             O 16  -- O 30                  -0.04        2.87072
             O 55  -- O 123                 -0.04        2.87072
             O 65  -- O 114                 -0.04        2.87072
             O 21  -- O 133                 -0.04        2.87161
             O 8   -- O 99                  -0.04        2.87161
             O 16  -- O 143                 -0.04        2.87162
             O 41  -- O 108                 -0.04        2.87162
             O 55  -- O 86                  -0.04        2.87162
             O 114 -- O 154                 -0.04        2.87162
             O 24  -- O 137                 -0.04        2.87169
             O 15  -- O 140                 -0.04        2.87169
             O 11  -- O 100                 -0.04        2.87169
             O 110 -- O 151                 -0.04        2.87169
             O 58  -- O 90                  -0.04        2.87169
             O 37  -- O 105                 -0.04        2.87170
             O 50  -- O 87                  -0.04        2.87292
             O 28  -- O 155                 -0.04        2.87292
             O 121 -- O 134                 -0.04        2.87293
             O 97  -- O 147                 -0.04        2.87293
             O 66  -- O 106                 -0.04        2.87293
             O 77  -- O 144                 -0.04        2.87293
             O 74  -- O 111                 -0.04        2.87335
             O 59  -- O 148                 -0.04        2.87335
             O 22  -- O 54                  -0.04        2.87336
             O 12  -- O 125                 -0.04        2.87336
             O 25  -- O 38                  -0.04        2.87336
             O 13  -- O 63                  -0.04        2.87336
             O 19  -- O 87                  -0.04        2.87345
             O 42  -- O 155                 -0.04        2.87345
             O 9   -- O 134                 -0.04        2.87345
             O 17  -- O 106                 -0.04        2.87345
             O 56  -- O 97                  -0.04        2.87345
             O 112 -- O 144                 -0.04        2.87345
             O 62  -- O 153                 -0.04        2.87379
             O 89  -- O 124                 -0.04        2.87380
             O 27  -- O 139                 -0.04        2.87380
             O 53  -- O 102                 -0.04        2.87380
             O 136 -- O 150                 -0.04        2.87380
             O 73  -- O 104                 -0.04        2.87380
             O 154 -- O 156                 -0.04        2.87385
             O 85  -- O 86                  -0.04        2.87385
             O 107 -- O 108                 -0.04        2.87385
             O 133 -- O 135                 -0.04        2.87385
             O 142 -- O 143                 -0.04        2.87385
             O 98  -- O 99                  -0.04        2.87385
             O 31  -- O 32                  -0.04        2.87402
             O 46  -- O 48                  -0.04        2.87403
             O 71  -- O 72                  -0.04        2.87403
             O 92  -- O 93                  -0.04        2.87403
             O 115 -- O 117                 -0.04        2.87403
             O 130 -- O 131                 -0.04        2.87403
             O 88  -- O 90                  -0.04        2.87470
             O 151 -- O 152                 -0.04        2.87470
             O 137 -- O 138                 -0.04        2.87470
             O 103 -- O 105                 -0.04        2.87470
             O 140 -- O 141                 -0.04        2.87470
             O 100 -- O 101                 -0.04        2.87470
             O 142 -- O 144                 -0.04        2.87471
             O 97  -- O 98                  -0.04        2.87472
             O 155 -- O 156                 -0.04        2.87472
             O 85  -- O 87                  -0.04        2.87472
             O 134 -- O 135                 -0.04        2.87472
             O 106 -- O 107                 -0.04        2.87472
             O 98  -- O 135                 -0.04        2.87501
             O 107 -- O 142                 -0.04        2.87501
             O 85  -- O 135                 -0.04        2.87501
             O 107 -- O 156                 -0.04        2.87501
             O 85  -- O 98                  -0.04        2.87501
             O 142 -- O 156                 -0.04        2.87501
             O 112 -- O 114                 -0.04        2.87532
             O 41  -- O 42                  -0.04        2.87532
             O 16  -- O 17                  -0.04        2.87532
             O 8   -- O 9                   -0.04        2.87532
             O 19  -- O 21                  -0.04        2.87532
             O 55  -- O 56                  -0.04        2.87532
             O 127 -- O 129                 -0.04        2.87554
             O 95  -- O 96                  -0.04        2.87554
             O 44  -- O 45                  -0.04        2.87554
             O 67  -- O 68                  -0.04        2.87554
             O 118 -- O 120                 -0.04        2.87555
             O 34  -- O 35                  -0.04        2.87555
             O 71  -- O 160                 -0.04        2.87570
             O 48  -- O 161                 -0.04        2.87570
             O 80  -- O 117                 -0.04        2.87570
             O 130 -- O 162                 -0.04        2.87570
             O 31  -- O 81                  -0.04        2.87570
             O 79  -- O 92                  -0.04        2.87570
             O 83  -- O 118                 -0.04        2.87580
             O 68  -- O 159                 -0.04        2.87580
             O 127 -- O 158                 -0.04        2.87580
             O 45  -- O 157                 -0.04        2.87580
             O 82  -- O 96                  -0.04        2.87580
             O 35  -- O 84                  -0.04        2.87580
             O 106 -- O 108                 -0.04        2.87587
             O 133 -- O 134                 -0.04        2.87587
             O 154 -- O 155                 -0.04        2.87587
             O 97  -- O 99                  -0.04        2.87587
             O 143 -- O 144                 -0.04        2.87587
             O 86  -- O 87                  -0.04        2.87588
             O 22  -- O 149                 -0.04        2.87611
             O 38  -- O 75                  -0.04        2.87611
             O 59  -- O 126                 -0.04        2.87611
             O 61  -- O 111                 -0.04        2.87611
             O 12  -- O 52                  -0.04        2.87611
             O 13  -- O 26                  -0.04        2.87611
             O 86  -- O 123                 -0.04        2.87632
             O 65  -- O 154                 -0.04        2.87632
             O 133 -- O 146                 -0.04        2.87632
             O 49  -- O 99                  -0.04        2.87632
             O 76  -- O 108                 -0.04        2.87632
             O 30  -- O 143                 -0.04        2.87632
             O 77  -- O 78                  -0.04        2.87683
             O 64  -- O 66                  -0.04        2.87683
             O 121 -- O 122                 -0.04        2.87683
             O 145 -- O 147                 -0.04        2.87683
             O 28  -- O 29                  -0.04        2.87683
             O 50  -- O 51                  -0.04        2.87683
             O 124 -- O 126                 -0.04        2.87690
             O 73  -- O 75                  -0.04        2.87690
             O 149 -- O 150                 -0.04        2.87690
             O 61  -- O 62                  -0.04        2.87690
             O 52  -- O 53                  -0.04        2.87690
             O 26  -- O 27                  -0.04        2.87690
             O 136 -- O 138                 -0.04        2.87707
             O 103 -- O 104                 -0.04        2.87708
             O 101 -- O 102                 -0.04        2.87708
             O 139 -- O 141                 -0.04        2.87708
             O 152 -- O 153                 -0.04        2.87708
             O 88  -- O 89                  -0.04        2.87708
             O 53  -- O 88                  -0.04        2.87721
             O 27  -- O 152                 -0.04        2.87721
             O 124 -- O 138                 -0.04        2.87722
             O 62  -- O 103                 -0.04        2.87722
             O 101 -- O 150                 -0.04        2.87722
             O 73  -- O 141                 -0.04        2.87722
             O 79  -- O 81                  -0.04        2.87731
             O 79  -- O 80                  -0.04        2.87731
             O 160 -- O 162                 -0.04        2.87731
             O 161 -- O 162                 -0.04        2.87731
             O 160 -- O 161                 -0.04        2.87731
             O 80  -- O 81                  -0.04        2.87731
             O 104 -- O 141                 -0.04        2.87771
             O 101 -- O 136                 -0.04        2.87771
             O 89  -- O 138                 -0.04        2.87771
             O 139 -- O 152                 -0.04        2.87771
             O 88  -- O 102                 -0.04        2.87771
             O 103 -- O 153                 -0.04        2.87771
             O 26  -- O 63                  -0.04        2.87802
             O 54  -- O 149                 -0.04        2.87802
             O 52  -- O 125                 -0.04        2.87802
             O 25  -- O 75                  -0.04        2.87803
             O 61  -- O 74                  -0.04        2.87803
             O 126 -- O 148                 -0.04        2.87803
             O 76  -- O 77                  -0.04        2.87825
             O 65  -- O 66                  -0.04        2.87825
             O 146 -- O 147                 -0.04        2.87825
             O 28  -- O 30                  -0.04        2.87825
             O 49  -- O 50                  -0.04        2.87825
             O 121 -- O 123                 -0.04        2.87825
             O 51  -- O 145                 -0.04        2.87842
             O 29  -- O 64                  -0.04        2.87842
             O 51  -- O 122                 -0.04        2.87842
             O 122 -- O 145                 -0.04        2.87842
             O 29  -- O 78                  -0.04        2.87842
             O 64  -- O 78                  -0.04        2.87842
             O 157 -- O 158                 -0.04        2.87891
             O 82  -- O 84                  -0.04        2.87891
             O 158 -- O 159                 -0.04        2.87891
             O 83  -- O 84                  -0.04        2.87891
             O 157 -- O 159                 -0.04        2.87891
             O 82  -- O 83                  -0.04        2.87891
             O 145 -- O 146                 -0.04        2.87910
             O 76  -- O 78                  -0.04        2.87910
             O 64  -- O 65                  -0.04        2.87910
             O 122 -- O 123                 -0.04        2.87910
             O 29  -- O 30                  -0.04        2.87910
             O 49  -- O 51                  -0.04        2.87911
             O 95  -- O 130                 -0.04        2.87968
             O 92  -- O 129                 -0.04        2.87968
             O 71  -- O 120                 -0.04        2.87969
             O 34  -- O 48                  -0.04        2.87969
             O 67  -- O 117                 -0.04        2.87969
             O 31  -- O 44                  -0.04        2.87969
             O 139 -- O 140                 -0.04        2.87976
             O 100 -- O 102                 -0.04        2.87976
             O 151 -- O 153                 -0.04        2.87976
             O 89  -- O 90                  -0.04        2.87976
             O 136 -- O 137                 -0.04        2.87977
             O 104 -- O 105                 -0.04        2.87977
             O 52  -- O 54                  -0.04        2.87988
             O 25  -- O 26                  -0.04        2.87988
             O 148 -- O 149                 -0.04        2.87988
             O 61  -- O 63                  -0.04        2.87988
             O 74  -- O 75                  -0.04        2.87988
             O 125 -- O 126                 -0.04        2.87988
             O 10  -- O 24                  -0.04        2.88019
             O 23  -- O 58                  -0.04        2.88019
             O 15  -- O 109                 -0.04        2.88019
             O 14  -- O 37                  -0.04        2.88019
             O 39  -- O 110                 -0.04        2.88019
             O 11  -- O 60                  -0.04        2.88019
             O 19  -- O 50                  -0.04        2.88026
             O 56  -- O 147                 -0.04        2.88026
             O 28  -- O 42                  -0.04        2.88026
             O 9   -- O 121                 -0.04        2.88026
             O 77  -- O 112                 -0.04        2.88026
             O 17  -- O 66                  -0.04        2.88026
             O 34  -- O 161                 -0.04        2.88033
             O 44  -- O 81                  -0.04        2.88033
             O 120 -- O 160                 -0.04        2.88033
             O 95  -- O 162                 -0.04        2.88033
             O 67  -- O 80                  -0.04        2.88033
             O 79  -- O 129                 -0.04        2.88033
             O 36  -- O 131                 -0.04        2.88034
             O 46  -- O 119                 -0.04        2.88034
             O 115 -- O 128                 -0.04        2.88034
             O 43  -- O 93                  -0.04        2.88034
             O 32  -- O 69                  -0.04        2.88034
             O 72  -- O 94                  -0.04        2.88035
             O 22  -- O 23                  -0.04        2.88060
             O 59  -- O 60                  -0.04        2.88060
             O 13  -- O 14                  -0.04        2.88060
             O 38  -- O 39                  -0.04        2.88060
             O 10  -- O 12                  -0.04        2.88060
             O 109 -- O 111                 -0.04        2.88060
             O 148 -- O 150                 -0.04        2.88097
             O 73  -- O 74                  -0.04        2.88097
             O 25  -- O 27                  -0.04        2.88098
             O 53  -- O 54                  -0.04        2.88098
             O 124 -- O 125                 -0.04        2.88098
             O 62  -- O 63                  -0.04        2.88098
             O 127 -- O 128                 -0.04        2.88259
             O 94  -- O 96                  -0.04        2.88259
             O 43  -- O 45                  -0.04        2.88260
             O 118 -- O 119                 -0.04        2.88260
             O 68  -- O 69                  -0.04        2.88260
             O 35  -- O 36                  -0.04        2.88260
             O 40  -- O 41                  -0.04        2.88272
             O 20  -- O 21                  -0.04        2.88272
             O 113 -- O 114                 -0.04        2.88272
             O 55  -- O 57                  -0.04        2.88272
             O 16  -- O 18                  -0.04        2.88272
             O 7   -- O 8                   -0.04        2.88272
             O 43  -- O 44                  -0.04        2.88282
             O 34  -- O 36                  -0.04        2.88283
             O 128 -- O 129                 -0.04        2.88283
             O 119 -- O 120                 -0.04        2.88283
             O 67  -- O 69                  -0.04        2.88283
             O 94  -- O 95                  -0.04        2.88283
             O 91  -- O 92                  -0.04        2.88377
             O 130 -- O 132                 -0.04        2.88377
             O 116 -- O 117                 -0.04        2.88377
             O 31  -- O 33                  -0.04        2.88378
             O 47  -- O 48                  -0.04        2.88378
             O 70  -- O 71                  -0.04        2.88378
             O 47  -- O 96                  -0.04        2.88379
             O 35  -- O 70                  -0.04        2.88379
             O 33  -- O 127                 -0.04        2.88379
             O 45  -- O 116                 -0.04        2.88379
             O 68  -- O 91                  -0.04        2.88379
             O 118 -- O 132                 -0.04        2.88379
             O 7   -- O 20                  -0.04        2.89038
             O 18  -- O 113                 -0.04        2.89038
             O 20  -- O 57                  -0.04        2.89039
             O 40  -- O 113                 -0.04        2.89039
             O 18  -- O 40                  -0.04        2.89039
             O 7   -- O 57                  -0.04        2.89039
             O 47  -- O 82                  -0.04        2.89130
             O 33  -- O 158                 -0.04        2.89130
             O 91  -- O 159                 -0.04        2.89130
             O 116 -- O 157                 -0.04        2.89130
             O 83  -- O 132                 -0.04        2.89130
             O 70  -- O 84                  -0.04        2.89130
             O 2   -- O 93                  -0.03        2.91111
             O 6   -- O 46                  -0.03        2.91112
             O 5   -- O 72                  -0.03        2.91113
             O 3   -- O 115                 -0.03        2.91114
             O 1   -- O 32                  -0.03        2.91114
             O 4   -- O 131                 -0.03        2.91114
======================================================================
 

Writing analysis data to al2o3_xc-PBESOL_c-0700_k-1x1x1_sc-3x3x3_site-0_geom.castep_bin

Writing model to al2o3_xc-PBESOL_c-0700_k-1x1x1_sc-3x3x3_site-0_geom.check
 
 A BibTeX formatted list of references used in this run has been written to 
 al2o3_xc-PBESOL_c-0700_k-1x1x1_sc-3x3x3_site-0_geom.bib
 
Initialisation time =      8.95 s
Calculation time    =   5199.47 s
Finalisation time   =      1.36 s
Total time          =   5209.78 s
Peak Memory Use     = 4957416 kB
  
Overall parallel efficiency rating: Mediocre (56%)                              
  
Data was distributed by:-
G-vector (80-way); efficiency rating: Mediocre (58%)                            
