 +-------------------------------------------------+
 |                                                 |
 |      CCC   AA    SSS  TTTTT  EEEEE  PPPP        |
 |     C     A  A  S       T    E      P   P       |
 |     C     AAAA   SS     T    EEE    PPPP        |
 |     C     A  A     S    T    E      P           |
 |      CCC  A  A  SSS     T    EEEEE  P           |
 |                                                 |
 +-------------------------------------------------+
 |                                                 |
 | Welcome to Academic Release CASTEP version 20.11|          
 | Ab Initio Total Energy Program                  |
 |                                                 |
 | Authors:                                        |
 | M. Segall, M. Probert, C. Pickard, P. Hasnip,   |
 | S. Clark, K. Refson, J. R. Yates, M. Payne      |
 |                                                 |
 | Contributors:                                   |
 | P. Lindan, P. Haynes, J. White, V. Milman,      |
 | N. Govind, M. Gibson, P. Tulip, V. Cocula,      |
 | B. Montanari, D. Quigley, M. Glover,            |
 | L. Bernasconi, A. Perlov, M. Plummer,           |
 | E. McNellis, J. Meyer, J. Gale, D. Jochym       |
 | J. Aarons, B. Walker, R. Gillen, D. Jones       |
 | T. Green, I. J. Bush, C. J. Armstrong,          |
 | E. J. Higgins, E. L. Brown, M. S. McFly,        |
 | J. Wilkins, B-C. Shih, P. J. P. Byrne,          |
 | R. J. Maurer, J. C. Womack, J. Dziedzic,        |
 | J. R. Kermode, A. Bartok-Partay                 |
 |                                                 |
 | Copyright (c) 2000 - 2020                       |
 |                                                 |
 |     Distributed under license from Cambridge    |
 |     Enterprise for academic use only.           |
 |                                                 |
 | Please cite                                     |
 |                                                 |
 |     "First principles methods using CASTEP"     |
 |                                                 |
 |         Zeitschrift fuer Kristallographie       |
 |           220(5-6) pp. 567-570 (2005)           |
 |                                                 |
 | S. J. Clark, M. D. Segall, C. J. Pickard,       |
 | P. J. Hasnip, M. J. Probert, K. Refson,         |
 | M. C. Payne                                     |
 |                                                 |
 |       in all publications arising from          |
 |              your use of CASTEP                 |
 |                                                 |
 +-------------------------------------------------+
 |                                                 |
 |              http://www.castep.org              |
 |                                                 |
 +-------------------------------------------------+
 
 
 
 Compiled for linux_x86_64_ifort on Fri, 22 Oct 2021 12:44:39 +0100
 from code version Version unavailable
 Compiler: Intel Fortran 19.1.0.166; Optimisation: fast
 MATHLIBS: Intel MKL(2020.0.0) (LAPACK version 3.7.0)
 FFT Lib : mkl
 Fundamental constants values: CODATA 2014
 
 Run started: Fri, 26 Nov 2021 01:07:15 +0000
 +-------------------------------------------------+
 |                                                 |
 |           N   N    M   M    RRRR                |
 |           NN  N    MM MM    R   R               |
 |           N N N    M M M    RRRR                |
 |           N  NN    M   M    R  R                |
 |           N   N    M   M    R   R               |
 |                                                 |
 +-------------------------------------------------+
 |                                                 |
 | Welcome to Materials Studio CASTEP-NMR          |
 |                                                 |
 | Authors:                                        |
 | J.R. Yates, C.J. Pickard, F. Mauri              |
 |                                                 |
 | Contributors:                                   |
 | T.F.G. Green, S.A. Joyce, R.T. Strong,          |
 | B-C. Shih                                       |
 |                                                 |
 | Copyright (c) 2004 - 2020                       |
 |                                                 |
 | Please cite the appropriate publications in all |
 | work arising from your use of CASTEP NMR.       |
 |                                                 |
 | For NMR Shielding Tensors cite:                 |
 |    "All-electron magnetic response with         |
 |    pseudopotentials: NMR chemical shifts",      |
 |    C. J. Pickard, F. Mauri;                     |
 |    Physical Review B63 245101 (2001), and       |
 |                                                 |
 |    "Calculation of NMR Chemical Shifts          |
 |    for extended systems using                   |
 |    Ultrasoft Pseudopotentials",                 |
 |    J. R. Yates, C. J. Pickard and F. Mauri      |
 |    Physical Review B76 024401 (2007)            |
 |                                                 |
 | For Electric Field Gradients cite:              |
 |   "Accurate First Principles Prediction of 17O  |
 |    NMR Parameters in SiO2: Assignment of the    |
 |    Zeolite Ferrierite Spectrum"                 |
 |    M. Profeta, F. Mauri and C. J. Pickard       |
 |    J. Amer. Chem. Soc. 125 541 (2003)           |
 |                                                 |
 | For Spin-Spin (J) Couplings cite:               |
 |   "A first principles theory of NMR J-coupling  |
 |   in solid-state systems"                       |
 |   S.A. Joyce, J.R. Yates, C.J. Pickard, F. Mauri|
 |   J. Chem. Phys. 127 204107 (2007)              |
 |                                                 |
 |   "Relativistic NMR J-coupling with ultrasoft   |
 |   pseudopotentials and the zeroth-order regular |
 |   approximation"                                |
 |   T.F.G. Green and J.R. Yates                   |
 |   J. Chem. Phys. 140 234106 (2014)              |
 |                                                 |
 +-------------------------------------------------+
 
 
 Atomic calculation performed for Li: 1s2 2s1
 
 Converged in 48 iterations to an ae energy of -201.033 eV
 
   ============================================================                
   | Pseudopotential Report - Date of generation 26-11-2021   |                
   ------------------------------------------------------------                
   | Element: Li Ionic charge:  3.00 Level of theory: PBESOL  |                
   | Atomic Solver: Koelling-Harmon                           |                
   |                                                          |                
   |               Reference Electronic Structure             |                
   |         Orbital         Occupation         Energy        |                
   |            1s              2.000           -1.888        |                
   |            2s              1.000           -0.104        |                
   |                                                          |                
   |                 Pseudopotential Definition               |                
   |        Beta     l      e      Rc     scheme   norm       |                
   |          1      0   -1.888   1.001     qc      0         |                
   |          2      0   -0.104   1.001     qc      0         |                
   |          3      0    0.250   1.001     qc      0         |                
   |         loc     1    0.000   1.001     pn      0         |                
   |                                                          |                
   | Augmentation charge Rinner = 0.699                       |                
   | No partial core correction                               |                
   ------------------------------------------------------------                
   | "1|1.0|14|16|18|10U:20(qc=7)"                            |                
   ------------------------------------------------------------                
   |      Author: Chris J. Pickard, Cambridge University      |                
   ============================================================                
 
 Atomic calculation performed for O: 1s2 2s2 2p4
 
 Converged in 57 iterations to an ae energy of -2034.019 eV
 
   ============================================================                
   | Pseudopotential Report - Date of generation 26-11-2021   |                
   ------------------------------------------------------------                
   | Element: O Ionic charge:  6.00 Level of theory: PBESOL   |                
   | Atomic Solver: Koelling-Harmon                           |                
   |                                                          |                
   |               Reference Electronic Structure             |                
   |         Orbital         Occupation         Energy        |                
   |            2s              2.000           -0.875        |                
   |            2p              4.000           -0.330        |                
   |                                                          |                
   |                 Pseudopotential Definition               |                
   |        Beta     l      e      Rc     scheme   norm       |                
   |          1      0   -0.875   1.100     qc      0         |                
   |          2      0    0.250   1.100     qc      0         |                
   |          3      1   -0.330   1.100     qc      0         |                
   |          4      1    0.250   1.100     qc      0         |                
   |         loc     2    0.000   1.100     pn      0         |                
   |                                                          |                
   | Augmentation charge Rinner = 0.769                       |                
   | Partial core correction Rc = 0.769                       |                
   ------------------------------------------------------------                
   | "2|1.1|17|20|23|20:21(qc=8)"                             |                
   ------------------------------------------------------------                
   |      Author: Chris J. Pickard, Cambridge University      |                
   ============================================================                
 
 Atomic calculation performed for Al: 1s2 2s2 2p6 3s2 3p1
 
 Converged in 55 iterations to an ae energy of -6590.489 eV
 
   ============================================================                
   | Pseudopotential Report - Date of generation 26-11-2021   |                
   ------------------------------------------------------------                
   | Element: Al Ionic charge:  3.00 Level of theory: PBESOL  |                
   | Atomic Solver: Koelling-Harmon                           |                
   |                                                          |                
   |               Reference Electronic Structure             |                
   |         Orbital         Occupation         Energy        |                
   |            3s              2.000           -0.284        |                
   |            3p              1.000           -0.099        |                
   |                                                          |                
   |                 Pseudopotential Definition               |                
   |        Beta     l      e      Rc     scheme   norm       |                
   |          1      0   -0.284   2.192     qc      0         |                
   |          2      0    0.250   2.192     qc      0         |                
   |          3      1   -0.099   2.192     qc      0         |                
   |          4      1    0.250   2.192     qc      0         |                
   |          5      2    0.000   2.000     qc      0         |                
   |          6      2    0.250   2.000     qc      0         |                
   |         loc     3    0.000   2.192     pn      0         |                
   |                                                          |                
   | Augmentation charge Rinner = 1.398                       |                
   | Partial core correction Rc = 1.398                       |                
   ------------------------------------------------------------                
   | "3|2.2|2.2|1.4|4|5|5|30:31:32U2U2"                       |                
   ------------------------------------------------------------                
   |      Author: Chris J. Pickard, Cambridge University      |                
   ============================================================                
 
 Pseudo atomic calculation performed for Li 1s2 2s1
 
 Converged in 22 iterations to a total energy of -198.8875 eV
 
 Pseudo atomic calculation performed for O 2s2 2p4
 
 Converged in 33 iterations to a total energy of -431.1291 eV
 
 Pseudo atomic calculation performed for Al 3s2 3p1
 
 Converged in 20 iterations to a total energy of -105.9172 eV
 Calculation parallelised over 40 processes.
 Data is distributed by G-vector(40-way)

 ************************************ Title ************************************
 

 ***************************** General Parameters ******************************
  
 output verbosity                               : normal  (1)
 write checkpoint data to                       : al2o3_sc-3x3x3_site-0_dir-1_disp_-0.50000.check
 type of calculation                            : Magnetic Resonance
 stress calculation                             : off
 density difference calculation                 : off
 electron localisation func (ELF) calculation   : off
 Hirshfeld analysis                             : off
 molecular orbital projected DOS                : off
 deltaSCF calculation                           : off
 unlimited duration calculation
 timing information                             : on
 memory usage estimate                          : on
 write extra output files                       : on
 write final potential to formatted file        : off
 write final density to formatted file          : off
 write BibTeX reference list                    : on
 write OTFG pseudopotential files               : on
 write electrostatic potential file             : on
 write bands file                               : on
 checkpoint writing                             : both castep_bin and check files
  
 output         length unit                     : A
 output           mass unit                     : amu
 output           time unit                     : ps
 output         charge unit                     : e
 output           spin unit                     : hbar/2
 output         energy unit                     : eV
 output          force unit                     : eV/A
 output       velocity unit                     : A/ps
 output       pressure unit                     : GPa
 output     inv_length unit                     : 1/A
 output      frequency unit                     : cm-1
 output force constant unit                     : eV/A**2
 output         volume unit                     : A**3
 output   IR intensity unit                     : (D/A)**2/amu
 output         dipole unit                     : D
 output         efield unit                     : eV/A/e
 output        entropy unit                     : J/mol/K
 output    efield chi2 unit                     : pm/V
  
 wavefunctions paging                           : none
 random number generator seed                   : randomised (10715733)
 data distribution                              : optimal for this architecture
 optimization strategy                          : maximize speed(+++)

 *********************** Exchange-Correlation Parameters ***********************
  
 using functional                               : PBE for solids (2008)
 relativistic treatment                         : Koelling-Harmon
 DFT+D: Semi-empirical dispersion correction    : off

 ************************* Pseudopotential Parameters **************************
  
 pseudopotential representation                 : reciprocal space
 <beta|phi> representation                      : reciprocal space
 spin-orbit coupling                            : off

 **************************** Basis Set Parameters *****************************
  
 plane wave basis set cut-off                   :   900.0000   eV
 size of standard grid                          :     1.7500
 size of   fine   gmax                          :    26.8966   1/A
 finite basis set correction                    : none

 **************************** Electronic Parameters ****************************
  
 number of  electrons                           :  1298.    
 net charge of system                           : +1.000    
 treating system as non-spin-polarized
 number of bands                                :        779

 ********************* Electronic Minimization Parameters **********************
  
 Method: Treating system as metallic with density mixing treatment of electrons,
         and number of  SD  steps               :          1
         and number of  CG  steps               :          4
  
 total energy / atom convergence tol.           : 0.1000E-07   eV
 eigen-energy convergence tolerance             : 0.4176E-08   eV
 max force / atom convergence tol.              : ignored
 convergence tolerance window                   :          3   cycles
 max. number of SCF cycles                      :         30
 number of fixed-spin iterations                :         10
 smearing scheme                                : Gaussian
 smearing width                                 : 0.2000       eV
 Fermi energy convergence tolerance             : 0.2721E-13   eV
 periodic dipole correction                     : NONE

 ************************** Density Mixing Parameters **************************
  
 density-mixing scheme                          : Broyden
 max. length of mixing history                  :         20
 charge density mixing amplitude                : 0.8000    
 cut-off energy for mixing                      :  900.0       eV

 *********************** Population Analysis Parameters ************************
  
 Population analysis with cutoff                :  3.000       A
 Population analysis output                     : summary and pdos components

 ************************ Magnetic Resonance Parameters ************************
  
 Magnetic Resonance Property                    : Electric Field Gradient
 band convergence tolerance                     : 0.1000E-08   eV

 *******************************************************************************
  
 
                           -------------------------------
                                      Unit Cell
                           -------------------------------
        Real Lattice(A)                      Reciprocal Lattice(1/A)
     7.1585490     4.1329960    13.0126620        0.438858935   0.253374959   0.160950498
    -7.1585410     4.1329870    13.0126610       -0.438859276   0.253375526   0.160950588
    -0.0000040    -8.2659800    13.0126600        0.000000307  -0.506750544   0.160950601
 
                       Lattice parameters(A)       Cell Angles
                    a =     15.416091          alpha =   55.337041
                    b =     15.416084          beta  =   55.337094
                    c =     15.416087          gamma =   55.337039
 
                       Current cell volume =          2309.971027       A**3
                                   density =             2.386545   AMU/A**3
                                           =             3.962951     g/cm^3
 
                           -------------------------------
                                     Cell Contents
                           -------------------------------
                         Total number of ions in cell =  271
                      Total number of species in cell =    3
                        Max number of any one species =  162
 
            xxxxxxxxxxxxxxxxxxxxxxxxxxxxxxxxxxxxxxxxxxxxxxxxxxxxxxxxxxxx
            x  Element    Atom        Fractional coordinates of atoms  x
            x            Number           u          v          w      x
            x----------------------------------------------------------x
            x  Li           1         0.146503   0.146503   0.206992   x 
            x  O            1         0.187106   0.310375   0.086735   x 
            x  O            2         0.310377   0.086734   0.187107   x 
            x  O            3         0.086735   0.187105   0.310375   x 
            x  O            4         0.022959   0.246597   0.146228   x 
            x  O            5         0.246599   0.146227   0.022958   x 
            x  O            6         0.146227   0.022956   0.246599   x 
            x  O            7         0.185326   0.315546   0.417885   x 
            x  O            8         0.315186   0.083194   0.519021   x 
            x  O            9         0.083474   0.185251   0.647701   x 
            x  O           10         0.019149   0.250269   0.480442   x 
            x  O           11         0.250069   0.149414   0.354557   x 
            x  O           12         0.148073   0.018363   0.583211   x 
            x  O           13         0.185260   0.314971   0.750122   x 
            x  O           14         0.314184   0.083065   0.852892   x 
            x  O           15         0.083265   0.183920   0.978776   x 
            x  O           16         0.018147   0.250140   0.814313   x 
            x  O           17         0.249859   0.148082   0.685632   x 
            x  O           18         0.148007   0.017787   0.915449   x 
            x  O           19         0.185251   0.647701   0.083474   x 
            x  O           20         0.315546   0.417885   0.185326   x 
            x  O           21         0.083194   0.519021   0.315186   x 
            x  O           22         0.018363   0.583211   0.148073   x 
            x  O           23         0.250268   0.480442   0.019149   x 
            x  O           24         0.149414   0.354557   0.250069   x 
            x  O           25         0.185312   0.648594   0.416424   x 
            x  O           26         0.314781   0.416865   0.518708   x 
            x  O           27         0.083259   0.518777   0.648193   x 
            x  O           28         0.018545   0.583508   0.481666   x 
            x  O           29         0.250096   0.481704   0.352163   x 
            x  O           30         0.148157   0.351999   0.583818   x 
            x  O           31         0.185219   0.648056   0.750005   x 
            x  O           32         0.314589   0.416859   0.852008   x 
            x  O           33         0.084058   0.517145   0.981889   x 
            x  O           34         0.018704   0.583083   0.815106   x 
            x  O           35         0.250038   0.481208   0.685549   x 
            x  O           36         0.148318   0.351133   0.917516   x 
            x  O           37         0.183919   0.978777   0.083265   x 
            x  O           38         0.314970   0.750123   0.185260   x 
            x  O           39         0.083065   0.852891   0.314184   x 
            x  O           40         0.017788   0.915448   0.148007   x 
            x  O           41         0.250140   0.814313   0.018147   x 
            x  O           42         0.148082   0.685632   0.249859   x 
            x  O           43         0.185015   0.982200   0.415817   x 
            x  O           44         0.314629   0.750250   0.518227   x 
            x  O           45         0.083295   0.852126   0.647784   x 
            x  O           46         0.018743   0.916475   0.481325   x 
            x  O           47         0.249275   0.816188   0.351444   x 
            x  O           48         0.148114   0.685277   0.583329   x 
            x  O           49         0.185176   0.981335   0.749516   x 
            x  O           50         0.314789   0.749826   0.851667   x 
            x  O           51         0.083237   0.851630   0.981170   x 
            x  O           52         0.018552   0.916468   0.814625   x 
            x  O           53         0.250074   0.814557   0.685141   x 
            x  O           54         0.148021   0.684740   0.916909   x 
            x  O           55         0.519020   0.315187   0.083194   x 
            x  O           56         0.647701   0.083474   0.185251   x 
            x  O           57         0.417885   0.185327   0.315546   x 
            x  O           58         0.354557   0.250069   0.149414   x 
            x  O           59         0.583211   0.148073   0.018363   x 
            x  O           60         0.480442   0.019149   0.250268   x 
            x  O           61         0.518708   0.314782   0.416865   x 
            x  O           62         0.648193   0.083259   0.518777   x 
            x  O           63         0.416424   0.185313   0.648594   x 
            x  O           64         0.352164   0.250097   0.481704   x 
            x  O           65         0.583818   0.148157   0.351999   x 
            x  O           66         0.481666   0.018545   0.583508   x 
            x  O           67         0.518227   0.314629   0.750250   x 
            x  O           68         0.647784   0.083295   0.852126   x 
            x  O           69         0.415817   0.185015   0.982200   x 
            x  O           70         0.351444   0.249275   0.816188   x 
            x  O           71         0.583329   0.148114   0.685277   x 
            x  O           72         0.481325   0.018743   0.916474   x 
            x  O           73         0.518777   0.648193   0.083259   x 
            x  O           74         0.648594   0.416425   0.185312   x 
            x  O           75         0.416865   0.518708   0.314781   x 
            x  O           76         0.351999   0.583818   0.148157   x 
            x  O           77         0.583508   0.481667   0.018545   x 
            x  O           78         0.481704   0.352164   0.250096   x 
            x  O           79         0.518571   0.648121   0.416608   x 
            x  O           80         0.648121   0.416608   0.518571   x 
            x  O           81         0.416608   0.518571   0.648121   x 
            x  O           82         0.351829   0.583474   0.481415   x 
            x  O           83         0.583474   0.481415   0.351829   x 
            x  O           84         0.481415   0.351829   0.583474   x 
            x  O           85         0.518612   0.648020   0.749944   x 
            x  O           86         0.647950   0.416790   0.851868   x 
            x  O           87         0.416653   0.518894   0.981381   x 
            x  O           88         0.351895   0.583126   0.814929   x 
            x  O           89         0.583344   0.481332   0.685180   x 
            x  O           90         0.481183   0.351790   0.916908   x 
            x  O           91         0.517145   0.981889   0.084058   x 
            x  O           92         0.648056   0.750004   0.185219   x 
            x  O           93         0.416859   0.852008   0.314590   x 
            x  O           94         0.351133   0.917517   0.148318   x 
            x  O           95         0.583083   0.815106   0.018704   x 
            x  O           96         0.481207   0.685549   0.250038   x 
            x  O           97         0.518893   0.981381   0.416653   x 
            x  O           98         0.648020   0.749944   0.518612   x 
            x  O           99         0.416790   0.851868   0.647950   x 
            x  O          100         0.351789   0.916908   0.481183   x 
            x  O          101         0.583126   0.814929   0.351895   x 
            x  O          102         0.481332   0.685180   0.583344   x 
            x  O          103         0.518404   0.981438   0.750207   x 
            x  O          104         0.648153   0.749990   0.852001   x 
            x  O          105         0.416425   0.852151   0.981544   x 
            x  O          106         0.351953   0.916681   0.814440   x 
            x  O          107         0.583389   0.814721   0.685314   x 
            x  O          108         0.481466   0.685384   0.916543   x 
            x  O          109         0.852892   0.314184   0.083065   x 
            x  O          110         0.978776   0.083265   0.183919   x 
            x  O          111         0.750122   0.185260   0.314970   x 
            x  O          112         0.685632   0.249859   0.148082   x 
            x  O          113         0.915449   0.148007   0.017787   x 
            x  O          114         0.814313   0.018147   0.250140   x 
            x  O          115         0.852009   0.314590   0.416858   x 
            x  O          116         0.981889   0.084058   0.517145   x 
            x  O          117         0.750005   0.185219   0.648056   x 
            x  O          118         0.685549   0.250038   0.481207   x 
            x  O          119         0.917516   0.148318   0.351133   x 
            x  O          120         0.815106   0.018704   0.583083   x 
            x  O          121         0.851667   0.314789   0.749825   x 
            x  O          122         0.981170   0.083237   0.851630   x 
            x  O          123         0.749515   0.185176   0.981335   x 
            x  O          124         0.685140   0.250074   0.814556   x 
            x  O          125         0.916909   0.148021   0.684739   x 
            x  O          126         0.814625   0.018552   0.916468   x 
            x  O          127         0.852126   0.647784   0.083295   x 
            x  O          128         0.982200   0.415817   0.185015   x 
            x  O          129         0.750250   0.518227   0.314628   x 
            x  O          130         0.685277   0.583329   0.148114   x 
            x  O          131         0.916475   0.481325   0.018743   x 
            x  O          132         0.816188   0.351445   0.249275   x 
            x  O          133         0.851868   0.647950   0.416790   x 
            x  O          134         0.981381   0.416653   0.518893   x 
            x  O          135         0.749944   0.518613   0.648020   x 
            x  O          136         0.685180   0.583344   0.481332   x 
            x  O          137         0.916908   0.481183   0.351789   x 
            x  O          138         0.814929   0.351896   0.583126   x 
            x  O          139         0.852001   0.648153   0.749990   x 
            x  O          140         0.981544   0.416425   0.852150   x 
            x  O          141         0.750207   0.518405   0.981438   x 
            x  O          142         0.685314   0.583390   0.814721   x 
            x  O          143         0.916543   0.481466   0.685383   x 
            x  O          144         0.814440   0.351953   0.916680   x 
            x  O          145         0.851630   0.981170   0.083237   x 
            x  O          146         0.981335   0.749516   0.185176   x 
            x  O          147         0.749826   0.851667   0.314789   x 
            x  O          148         0.684739   0.916909   0.148021   x 
            x  O          149         0.916468   0.814625   0.018552   x 
            x  O          150         0.814557   0.685140   0.250074   x 
            x  O          151         0.852150   0.981544   0.416425   x 
            x  O          152         0.981438   0.750207   0.518404   x 
            x  O          153         0.749990   0.852001   0.648153   x 
            x  O          154         0.685383   0.916544   0.481466   x 
            x  O          155         0.916681   0.814440   0.351953   x 
            x  O          156         0.814721   0.685314   0.583389   x 
            x  O          157         0.851918   0.981504   0.749859   x 
            x  O          158         0.981504   0.749859   0.851918   x 
            x  O          159         0.749859   0.851918   0.981504   x 
            x  O          160         0.685212   0.916725   0.814762   x 
            x  O          161         0.916725   0.814762   0.685212   x 
            x  O          162         0.814762   0.685212   0.916725   x 
            x  Al           1         0.046449   0.046449   0.046449   x 
            x  Al           2         0.221738   0.221740   0.221739   x 
            x  Al           3         0.286885   0.286885   0.286885   x 
            x  Al           4         0.111593   0.111595   0.111594   x 
            x  Al           5         0.048507   0.048111   0.384006   x 
            x  Al           6         0.216286   0.215669   0.550221   x 
            x  Al           7         0.284051   0.284386   0.617411   x 
            x  Al           8         0.117299   0.117009   0.451646   x 
            x  Al           9         0.049282   0.048947   0.715922   x 
            x  Al          10         0.216034   0.216324   0.881687   x 
            x  Al          11         0.284825   0.285222   0.949327   x 
            x  Al          12         0.117047   0.117665   0.783113   x 
            x  Al          13         0.048111   0.384005   0.048509   x 
            x  Al          14         0.215668   0.550221   0.216286   x 
            x  Al          15         0.284386   0.617412   0.284051   x 
            x  Al          16         0.117009   0.451646   0.117299   x 
            x  Al          17         0.048826   0.383647   0.383682   x 
            x  Al          18         0.215924   0.549391   0.549345   x 
            x  Al          19         0.284029   0.617399   0.617409   x 
            x  Al          20         0.117384   0.451231   0.451434   x 
            x  Al          21         0.049042   0.382849   0.715957   x 
            x  Al          22         0.216245   0.549605   0.882328   x 
            x  Al          23         0.284052   0.617481   0.950647   x 
            x  Al          24         0.117319   0.450917   0.783859   x 
            x  Al          25         0.048947   0.715922   0.049283   x 
            x  Al          26         0.216324   0.881687   0.216034   x 
            x  Al          27         0.285223   0.949326   0.284826   x 
            x  Al          28         0.117665   0.783113   0.117047   x 
            x  Al          29         0.049281   0.715853   0.382687   x 
            x  Al          30         0.216014   0.882417   0.549474   x 
            x  Al          31         0.284291   0.950484   0.617377   x 
            x  Al          32         0.117088   0.783728   0.451006   x 
            x  Al          33         0.049304   0.715935   0.715924   x 
            x  Al          34         0.215949   0.882103   0.881899   x 
            x  Al          35         0.284507   0.949687   0.949652   x 
            x  Al          36         0.117409   0.783943   0.783988   x 
            x  Al          37         0.384007   0.048507   0.048110   x 
            x  Al          38         0.550221   0.216286   0.215668   x 
            x  Al          39         0.617411   0.284051   0.284386   x 
            x  Al          40         0.451646   0.117300   0.117009   x 
            x  Al          41         0.383682   0.048826   0.383646   x 
            x  Al          42         0.549345   0.215924   0.549390   x 
            x  Al          43         0.617409   0.284029   0.617398   x 
            x  Al          44         0.451434   0.117384   0.451231   x 
            x  Al          45         0.382687   0.049281   0.715852   x 
            x  Al          46         0.549474   0.216014   0.882416   x 
            x  Al          47         0.617376   0.284292   0.950484   x 
            x  Al          48         0.451006   0.117088   0.783728   x 
            x  Al          49         0.383646   0.383682   0.048826   x 
            x  Al          50         0.549390   0.549345   0.215924   x 
            x  Al          51         0.617398   0.617409   0.284029   x 
            x  Al          52         0.451231   0.451435   0.117384   x 
            x  Al          53         0.382869   0.382869   0.382869   x 
            x  Al          54         0.549291   0.549291   0.549291   x 
            x  Al          55         0.617371   0.617371   0.617371   x 
            x  Al          56         0.450782   0.450782   0.450782   x 
            x  Al          57         0.382831   0.382756   0.715644   x 
            x  Al          58         0.549456   0.549492   0.882381   x 
            x  Al          59         0.617518   0.617445   0.950564   x 
            x  Al          60         0.450941   0.450800   0.783885   x 
            x  Al          61         0.382849   0.715957   0.049042   x 
            x  Al          62         0.549605   0.882327   0.216245   x 
            x  Al          63         0.617481   0.950646   0.284052   x 
            x  Al          64         0.450916   0.783860   0.117319   x 
            x  Al          65         0.382756   0.715644   0.382830   x 
            x  Al          66         0.549492   0.882381   0.549456   x 
            x  Al          67         0.617445   0.950564   0.617518   x 
            x  Al          68         0.450799   0.783886   0.450941   x 
            x  Al          69         0.382769   0.715816   0.715889   x 
            x  Al          70         0.549448   0.882393   0.882534   x 
            x  Al          71         0.617690   0.950503   0.950577   x 
            x  Al          72         0.450953   0.783878   0.783841   x 
            x  Al          73         0.715922   0.049282   0.048947   x 
            x  Al          74         0.881687   0.216034   0.216324   x 
            x  Al          75         0.949328   0.284825   0.285222   x 
            x  Al          76         0.783113   0.117047   0.117665   x 
            x  Al          77         0.715957   0.049042   0.382849   x 
            x  Al          78         0.882327   0.216245   0.549605   x 
            x  Al          79         0.950646   0.284053   0.617481   x 
            x  Al          80         0.783860   0.117319   0.450917   x 
            x  Al          81         0.715924   0.049304   0.715935   x 
            x  Al          82         0.881899   0.215950   0.882103   x 
            x  Al          83         0.949651   0.284508   0.949687   x 
            x  Al          84         0.783988   0.117409   0.783943   x 
            x  Al          85         0.715852   0.382687   0.049281   x 
            x  Al          86         0.882417   0.549474   0.216014   x 
            x  Al          87         0.950484   0.617377   0.284292   x 
            x  Al          88         0.783728   0.451006   0.117088   x 
            x  Al          89         0.715644   0.382831   0.382756   x 
            x  Al          90         0.882381   0.549456   0.549492   x 
            x  Al          91         0.950564   0.617518   0.617445   x 
            x  Al          92         0.783886   0.450941   0.450799   x 
            x  Al          93         0.715889   0.382769   0.715815   x 
            x  Al          94         0.882534   0.549448   0.882393   x 
            x  Al          95         0.950577   0.617689   0.950503   x 
            x  Al          96         0.783841   0.450953   0.783877   x 
            x  Al          97         0.715935   0.715924   0.049304   x 
            x  Al          98         0.882103   0.881899   0.215950   x 
            x  Al          99         0.949687   0.949651   0.284508   x 
            x  Al         100         0.783943   0.783988   0.117409   x 
            x  Al         101         0.715816   0.715888   0.382769   x 
            x  Al         102         0.882393   0.882534   0.549448   x 
            x  Al         103         0.950503   0.950577   0.617689   x 
            x  Al         104         0.783878   0.783841   0.450952   x 
            x  Al         105         0.715963   0.715963   0.715963   x 
            x  Al         106         0.882551   0.882551   0.882551   x 
            x  Al         107         0.950465   0.950465   0.950465   x 
            x  Al         108         0.784042   0.784042   0.784042   x 
            xxxxxxxxxxxxxxxxxxxxxxxxxxxxxxxxxxxxxxxxxxxxxxxxxxxxxxxxxxxx
 
 
                         No user defined ionic velocities
 
                           -------------------------------
                                   Details of Species
                           -------------------------------
 
                               Mass of species in AMU
                                    Li    6.9410000
                                    O   15.9994000
                                    Al   26.9815400
 
                          Electric Quadrupole Moment (Barn)
                                    Li    0.0326000  User Defined Isotope
                                    O   -0.0255800 Isotope 17
                                    Al    0.1466000 Isotope 27
 
                          Files used for pseudopotentials:
                                    Li 1|1.0|14|16|18|10U:20(qc=7)
                                    O 2|1.1|17|20|23|20:21(qc=8)
                                    Al 3|2.2|2.2|1.4|4|5|5|30:31:32U2U2
 
                           -------------------------------
                              k-Points For BZ Sampling
                           -------------------------------
                       MP grid size for SCF calculation is  1  1  1
                            with an offset of   0.000  0.000  0.000
                       Number of kpoints used =             1
 
                           -------------------------------
                               Symmetry and Constraints
                           -------------------------------
 
                      Maximum deviation from symmetry =  0.00000         ANG
 
                      Number of symmetry operations   =           1
                      Number of ionic constraints     =           3
                      Point group of crystal =     1: C1, 1, 1
                      Space group of crystal =     1: P1, P 1
 
             Set iprint > 1 for details on symmetry rotations/translations
 
                         Centre of mass is constrained
             Set iprint > 1 for details of linear ionic constraints
 
                         Number of cell constraints= 6
                         Cell constraints are:  0 0 0 0 0 0
 
                         External pressure/stress (GPa)
                          0.00000   0.00000   0.00000
                                    0.00000   0.00000
                                              0.00000
  
+---------------- MEMORY AND SCRATCH DISK ESTIMATES PER PROCESS --------------+
|                                                     Memory          Disk    |
| Baseline code, static data and system overhead     3753.0 MB         0.0 MB |
| BLAS internal memory storage                          0.0 MB         0.0 MB |
| Model and support data                              635.8 MB         0.0 MB |
| Electronic energy minimisation requirements         108.1 MB         0.0 MB |
| Force calculation requirements                        8.1 MB         0.0 MB |
|                                               ----------------------------- |
| Approx. total storage required per process         4496.8 MB         0.0 MB |
|                                                                             |
| Requirements will fluctuate during execution and may exceed these estimates |
+-----------------------------------------------------------------------------+
Calculating total energy with cut-off of  900.000 eV.
------------------------------------------------------------------------ <-- SCF
SCF loop      Energy           Fermi           Energy gain       Timer   <-- SCF
                               energy          per atom          (sec)   <-- SCF
------------------------------------------------------------------------ <-- SCF
Initial  -6.13707187E+004  0.00000000E+000                        14.83  <-- SCF
      1  -7.79871103E+004  8.64274720E+000   6.13150980E+001      51.41  <-- SCF
      2  -8.36667105E+004  8.55094900E+000   2.09579346E+001      81.06  <-- SCF
      3  -8.38190573E+004  8.52544715E+000   5.62165145E-001     109.60  <-- SCF
      4  -8.37040877E+004  1.00496062E+001  -4.24242176E-001     147.31  <-- SCF
      5  -8.36201931E+004  9.47686336E+000  -3.09574242E-001     184.84  <-- SCF
      6  -8.36204939E+004  9.52222716E+000   1.11019319E-003     224.23  <-- SCF
      7  -8.36205544E+004  9.54598494E+000   2.23132743E-004     260.46  <-- SCF
      8  -8.36205566E+004  9.54995299E+000   8.23260860E-006     298.29  <-- SCF
      9  -8.36205551E+004  9.55043975E+000  -5.66771977E-006     334.45  <-- SCF
     10  -8.36205550E+004  9.55107017E+000  -3.09992659E-007     366.46  <-- SCF
     11  -8.36205549E+004  9.55165002E+000  -4.24532383E-007     396.85  <-- SCF
     12  -8.36205549E+004  9.55169013E+000  -9.60326944E-008     427.09  <-- SCF
     13  -8.36205549E+004  9.55162283E+000  -1.40694943E-008     450.95  <-- SCF
     14  -8.36205548E+004  9.55162052E+000  -1.43327793E-008     475.37  <-- SCF
     15  -8.36205548E+004  9.55162862E+000  -1.24806973E-009     497.75  <-- SCF
     16  -8.36205548E+004  9.55163298E+000   1.29587748E-009     519.97  <-- SCF
------------------------------------------------------------------------ <-- SCF
 
Final energy, E             =  -83620.55484815     eV
Final free energy (E-TS)    =  -83620.55484815     eV
(energies not corrected for finite basis set)
 
NB est. 0K energy (E-0.5TS)      =  -83620.55484815     eV
 

Writing analysis data to al2o3_sc-3x3x3_site-0_dir-1_disp_-0.50000.castep_bin

Writing model to al2o3_sc-3x3x3_site-0_dir-1_disp_-0.50000.check
 
  =====================================================================
  +       Calculation of Nuclear Magnetic Resonance Parameters        +
  + ================================================================= +
 
  Starting Calculation of Electric Field Gradient Tensors         |<-- EFG
  +---------------- MEMORY AND SCRATCH DISK ESTIMATES PER PROCESS --------------+
  |                                                     Memory          Disk    |
  | Model and support data                              664.5 MB         0.0 MB |
  | NMR EFG calculation requirements                    149.2 MB         0.0 MB |
  |                                               ----------------------------- |
  | Approx. total storage required per process          813.6 MB         0.0 MB |
  |                                                                             |
  | Requirements will fluctuate during execution and may exceed these estimates |
  +-----------------------------------------------------------------------------+
  Total Time for EFG Tensors                    1182.40 sec       |<-- EFG
 
 
  ===============================================================
  |                Electric Field Gradient Tensor               |
  |-------------------------------------------------------------|
  |     Nucleus                              EFG tensor         |
  |    Species            Ion             Cq(MHz)        Asym   |
  |    Li                 1            -1.780E-01        0.67   |
  |    O                  1             2.114E+00        0.86   |
  |    O                  2             2.527E+00        0.42   |
  |    O                  3             2.556E+00        0.77   |
  |    O                  4            -1.813E+00        0.86   |
  |    O                  5             2.391E+00        0.64   |
  |    O                  6             2.724E+00        0.64   |
  |    O                  7             2.112E+00        0.40   |
  |    O                  8             2.329E+00        0.50   |
  |    O                  9             2.259E+00        0.53   |
  |    O                 10             2.313E+00        0.52   |
  |    O                 11             2.495E+00        0.40   |
  |    O                 12             2.245E+00        0.51   |
  |    O                 13             2.222E+00        0.49   |
  |    O                 14             2.295E+00        0.51   |
  |    O                 15             2.427E+00        0.32   |
  |    O                 16             2.340E+00        0.50   |
  |    O                 17             2.262E+00        0.53   |
  |    O                 18             2.128E+00        0.41   |
  |    O                 19             2.260E+00        0.53   |
  |    O                 20             2.122E+00        0.40   |
  |    O                 21             2.336E+00        0.50   |
  |    O                 22             2.227E+00        0.50   |
  |    O                 23             2.295E+00        0.52   |
  |    O                 24             2.351E+00        0.33   |
  |    O                 25             2.213E+00        0.49   |
  |    O                 26             2.238E+00        0.49   |
  |    O                 27             2.251E+00        0.50   |
  |    O                 28             2.226E+00        0.50   |
  |    O                 29             2.229E+00        0.49   |
  |    O                 30             2.193E+00        0.43   |
  |    O                 31             2.242E+00        0.51   |
  |    O                 32             2.242E+00        0.50   |
  |    O                 33             2.284E+00        0.47   |
  |    O                 34             2.222E+00        0.51   |
  |    O                 35             2.258E+00        0.49   |
  |    O                 36             2.222E+00        0.53   |
  |    O                 37             2.548E+00        0.39   |
  |    O                 38             2.236E+00        0.50   |
  |    O                 39             2.313E+00        0.52   |
  |    O                 40             2.116E+00        0.40   |
  |    O                 41             2.332E+00        0.50   |
  |    O                 42             2.262E+00        0.53   |
  |    O                 43             2.339E+00        0.56   |
  |    O                 44             2.198E+00        0.53   |
  |    O                 45             2.273E+00        0.47   |
  |    O                 46             2.275E+00        0.48   |
  |    O                 47             2.296E+00        0.42   |
  |    O                 48             2.240E+00        0.51   |
  |    O                 49             2.200E+00        0.44   |
  |    O                 50             2.218E+00        0.49   |
  |    O                 51             2.229E+00        0.49   |
  |    O                 52             2.238E+00        0.49   |
  |    O                 53             2.251E+00        0.50   |
  |    O                 54             2.224E+00        0.50   |
  |    O                 55             2.338E+00        0.50   |
  |    O                 56             2.263E+00        0.53   |
  |    O                 57             2.125E+00        0.41   |
  |    O                 58             2.508E+00        0.34   |
  |    O                 59             2.226E+00        0.49   |
  |    O                 60             2.304E+00        0.52   |
  |    O                 61             2.239E+00        0.48   |
  |    O                 62             2.249E+00        0.50   |
  |    O                 63             2.226E+00        0.50   |
  |    O                 64             2.231E+00        0.49   |
  |    O                 65             2.199E+00        0.44   |
  |    O                 66             2.219E+00        0.50   |
  |    O                 67             2.220E+00        0.51   |
  |    O                 68             2.262E+00        0.48   |
  |    O                 69             2.257E+00        0.48   |
  |    O                 70             2.279E+00        0.47   |
  |    O                 71             2.244E+00        0.51   |
  |    O                 72             2.237E+00        0.51   |
  |    O                 73             2.252E+00        0.50   |
  |    O                 74             2.215E+00        0.50   |
  |    O                 75             2.237E+00        0.49   |
  |    O                 76             2.197E+00        0.44   |
  |    O                 77             2.221E+00        0.50   |
  |    O                 78             2.228E+00        0.49   |
  |    O                 79             2.241E+00        0.49   |
  |    O                 80             2.239E+00        0.49   |
  |    O                 81             2.236E+00        0.50   |
  |    O                 82             2.215E+00        0.51   |
  |    O                 83             2.217E+00        0.50   |
  |    O                 84             2.221E+00        0.49   |
  |    O                 85             2.239E+00        0.52   |
  |    O                 86             2.248E+00        0.51   |
  |    O                 87             2.236E+00        0.53   |
  |    O                 88             2.231E+00        0.48   |
  |    O                 89             2.232E+00        0.51   |
  |    O                 90             2.235E+00        0.54   |
  |    O                 91             2.290E+00        0.45   |
  |    O                 92             2.243E+00        0.51   |
  |    O                 93             2.250E+00        0.51   |
  |    O                 94             2.304E+00        0.46   |
  |    O                 95             2.209E+00        0.52   |
  |    O                 96             2.268E+00        0.48   |
  |    O                 97             2.234E+00        0.53   |
  |    O                 98             2.236E+00        0.52   |
  |    O                 99             2.250E+00        0.51   |
  |    O                100             2.204E+00        0.55   |
  |    O                101             2.237E+00        0.48   |
  |    O                102             2.240E+00        0.50   |
  |    O                103             2.231E+00        0.48   |
  |    O                104             2.237E+00        0.50   |
  |    O                105             2.221E+00        0.54   |
  |    O                106             2.232E+00        0.53   |
  |    O                107             2.239E+00        0.52   |
  |    O                108             2.250E+00        0.51   |
  |    O                109             2.302E+00        0.52   |
  |    O                110             2.382E+00        0.37   |
  |    O                111             2.240E+00        0.51   |
  |    O                112             2.258E+00        0.53   |
  |    O                113             2.114E+00        0.39   |
  |    O                114             2.332E+00        0.50   |
  |    O                115             2.280E+00        0.46   |
  |    O                116             2.304E+00        0.41   |
  |    O                117             2.237E+00        0.51   |
  |    O                118             2.270E+00        0.48   |
  |    O                119             2.290E+00        0.63   |
  |    O                120             2.200E+00        0.52   |
  |    O                121             2.225E+00        0.50   |
  |    O                122             2.227E+00        0.49   |
  |    O                123             2.194E+00        0.43   |
  |    O                124             2.253E+00        0.50   |
  |    O                125             2.209E+00        0.49   |
  |    O                126             2.237E+00        0.49   |
  |    O                127             2.261E+00        0.49   |
  |    O                128             2.224E+00        0.59   |
  |    O                129             2.214E+00        0.51   |
  |    O                130             2.239E+00        0.51   |
  |    O                131             2.262E+00        0.47   |
  |    O                132             2.299E+00        0.44   |
  |    O                133             2.247E+00        0.51   |
  |    O                134             2.243E+00        0.54   |
  |    O                135             2.233E+00        0.52   |
  |    O                136             2.235E+00        0.51   |
  |    O                137             2.227E+00        0.54   |
  |    O                138             2.242E+00        0.48   |
  |    O                139             2.232E+00        0.51   |
  |    O                140             2.238E+00        0.54   |
  |    O                141             2.236E+00        0.47   |
  |    O                142             2.236E+00        0.52   |
  |    O                143             2.246E+00        0.51   |
  |    O                144             2.241E+00        0.53   |
  |    O                145             2.231E+00        0.49   |
  |    O                146             2.195E+00        0.44   |
  |    O                147             2.223E+00        0.50   |
  |    O                148             2.222E+00        0.49   |
  |    O                149             2.239E+00        0.49   |
  |    O                150             2.249E+00        0.50   |
  |    O                151             2.208E+00        0.54   |
  |    O                152             2.242E+00        0.48   |
  |    O                153             2.240E+00        0.50   |
  |    O                154             2.249E+00        0.51   |
  |    O                155             2.239E+00        0.54   |
  |    O                156             2.233E+00        0.52   |
  |    O                157             2.214E+00        0.51   |
  |    O                158             2.220E+00        0.50   |
  |    O                159             2.218E+00        0.50   |
  |    O                160             2.239E+00        0.50   |
  |    O                161             2.241E+00        0.49   |
  |    O                162             2.235E+00        0.50   |
  |    Al                 1             4.953E+00        0.02   |
  |    Al                 2            -2.317E+00        0.45   |
  |    Al                 3             4.954E+00        0.02   |
  |    Al                 4            -2.301E+00        0.43   |
  |    Al                 5             3.216E+00        0.49   |
  |    Al                 6             2.233E+00        0.13   |
  |    Al                 7             2.309E+00        0.03   |
  |    Al                 8             2.613E+00        0.43   |
  |    Al                 9             2.279E+00        0.06   |
  |    Al                10             2.323E+00        0.59   |
  |    Al                11             2.729E+00        0.39   |
  |    Al                12             2.253E+00        0.11   |
  |    Al                13             2.712E+00        0.54   |
  |    Al                14             2.251E+00        0.12   |
  |    Al                15             2.290E+00        0.04   |
  |    Al                16             2.304E+00        0.60   |
  |    Al                17             2.084E+00        0.18   |
  |    Al                18             2.374E+00        0.14   |
  |    Al                19             2.358E+00        0.09   |
  |    Al                20             2.589E+00        0.30   |
  |    Al                21             2.359E+00        0.20   |
  |    Al                22             2.192E+00        0.22   |
  |    Al                23             2.393E+00        0.04   |
  |    Al                24             2.234E+00        0.37   |
  |    Al                25             2.301E+00        0.04   |
  |    Al                26             2.749E+00        0.44   |
  |    Al                27             3.116E+00        0.37   |
  |    Al                28             2.235E+00        0.12   |
  |    Al                29             2.434E+00        0.07   |
  |    Al                30             2.275E+00        0.54   |
  |    Al                31             2.382E+00        0.19   |
  |    Al                32             2.161E+00        0.24   |
  |    Al                33             2.362E+00        0.06   |
  |    Al                34             2.586E+00        0.32   |
  |    Al                35             2.100E+00        0.27   |
  |    Al                36             2.386E+00        0.15   |
  |    Al                37             2.878E+00        0.31   |
  |    Al                38             2.246E+00        0.11   |
  |    Al                39             2.285E+00        0.06   |
  |    Al                40             2.522E+00        0.51   |
  |    Al                41             2.069E+00        0.26   |
  |    Al                42             2.382E+00        0.14   |
  |    Al                43             2.360E+00        0.06   |
  |    Al                44             2.591E+00        0.32   |
  |    Al                45             2.391E+00        0.04   |
  |    Al                46             2.238E+00        0.38   |
  |    Al                47             2.364E+00        0.21   |
  |    Al                48             2.188E+00        0.19   |
  |    Al                49             2.127E+00        0.23   |
  |    Al                50             2.383E+00        0.15   |
  |    Al                51             2.362E+00        0.08   |
  |    Al                52             2.582E+00        0.31   |
  |    Al                53             2.202E+00        0.01   |
  |    Al                54             2.276E+00        0.02   |
  |    Al                55             2.345E+00        0.00   |
  |    Al                56             2.326E+00        0.01   |
  |    Al                57             2.387E+00        0.39   |
  |    Al                58             2.273E+00        0.06   |
  |    Al                59             2.267E+00        0.13   |
  |    Al                60             2.402E+00        0.10   |
  |    Al                61             2.375E+00        0.20   |
  |    Al                62             2.174E+00        0.20   |
  |    Al                63             2.409E+00        0.05   |
  |    Al                64             2.250E+00        0.45   |
  |    Al                65             2.431E+00        0.45   |
  |    Al                66             2.266E+00        0.06   |
  |    Al                67             2.267E+00        0.12   |
  |    Al                68             2.418E+00        0.10   |
  |    Al                69             2.266E+00        0.12   |
  |    Al                70             2.405E+00        0.11   |
  |    Al                71             2.407E+00        0.42   |
  |    Al                72             2.272E+00        0.05   |
  |    Al                73             2.304E+00        0.02   |
  |    Al                74             2.395E+00        0.50   |
  |    Al                75             2.843E+00        0.62   |
  |    Al                76             2.241E+00        0.13   |
  |    Al                77             2.377E+00        0.19   |
  |    Al                78             2.168E+00        0.28   |
  |    Al                79             2.437E+00        0.07   |
  |    Al                80             2.265E+00        0.53   |
  |    Al                81             2.360E+00        0.10   |
  |    Al                82             2.582E+00        0.30   |
  |    Al                83             2.117E+00        0.19   |
  |    Al                84             2.378E+00        0.15   |
  |    Al                85             2.416E+00        0.05   |
  |    Al                86             2.236E+00        0.43   |
  |    Al                87             2.365E+00        0.19   |
  |    Al                88             2.185E+00        0.26   |
  |    Al                89             2.412E+00        0.41   |
  |    Al                90             2.265E+00        0.07   |
  |    Al                91             2.268E+00        0.14   |
  |    Al                92             2.427E+00        0.07   |
  |    Al                93             2.268E+00        0.14   |
  |    Al                94             2.411E+00        0.08   |
  |    Al                95             2.391E+00        0.38   |
  |    Al                96             2.270E+00        0.07   |
  |    Al                97             2.357E+00        0.07   |
  |    Al                98             2.593E+00        0.31   |
  |    Al                99             2.061E+00        0.21   |
  |    Al               100             2.375E+00        0.14   |
  |    Al               101             2.268E+00        0.13   |
  |    Al               102             2.430E+00        0.08   |
  |    Al               103             2.434E+00        0.45   |
  |    Al               104             2.262E+00        0.07   |
  |    Al               105             2.345E+00        0.00   |
  |    Al               106             2.326E+00        0.01   |
  |    Al               107             2.203E+00        0.01   |
  |    Al               108             2.276E+00        0.02   |
  ===============================================================
 
 ************************** Forces **************************
 *                                                          *
 *               Cartesian components (eV/A)                *
 * -------------------------------------------------------- *
 *                         x            y            z      *
 *                                                          *
 * Li              1      0.03400      3.62268     -0.24469 *
 * O               1     -0.19638     -0.10551      0.15627 *
 * O               2     -0.06901     -0.42172     -0.10040 *
 * O               3     -0.70687     -1.37637      1.09634 *
 * O               4      0.07616     -0.42573      0.03107 *
 * O               5      0.08993     -0.00624     -0.14880 *
 * O               6      0.57604     -1.07831     -0.77287 *
 * O               7      0.00719     -0.00870     -0.00117 *
 * O               8     -0.00182     -0.00149     -0.01782 *
 * O               9     -0.00405      0.00417     -0.02067 *
 * O              10      0.04349      0.02533     -0.06685 *
 * O              11     -0.05964     -0.06699     -0.09748 *
 * O              12     -0.01130      0.03261     -0.04342 *
 * O              13     -0.00998      0.03534     -0.04626 *
 * O              14      0.04840      0.03645     -0.09008 *
 * O              15     -0.05399     -0.05837     -0.09386 *
 * O              16     -0.00073      0.00160     -0.02393 *
 * O              17     -0.00343      0.00942     -0.02506 *
 * O              18      0.00411     -0.01279     -0.01849 *
 * O              19     -0.01312     -0.00445      0.01788 *
 * O              20     -0.00605     -0.01373      0.02448 *
 * O              21     -0.00214     -0.00706      0.00669 *
 * O              22     -0.01966     -0.01356      0.02049 *
 * O              23     -0.02315      0.04736      0.08139 *
 * O              24      0.00513     -0.13027      0.02025 *
 * O              25     -0.01577      0.01192      0.01044 *
 * O              26     -0.00245      0.01607     -0.00356 *
 * O              27     -0.01711      0.02118     -0.01182 *
 * O              28     -0.00344      0.00658      0.00470 *
 * O              29     -0.00369     -0.00273      0.00797 *
 * O              30     -0.00812      0.01160     -0.01444 *
 * O              31     -0.02471      0.02994      0.00113 *
 * O              32     -0.00989      0.08078      0.02524 *
 * O              33     -0.10781      0.04170     -0.00144 *
 * O              34     -0.02623      0.02096     -0.00384 *
 * O              35     -0.02156      0.04296     -0.00864 *
 * O              36     -0.10736      0.09000     -0.08667 *
 * O              37     -0.00187     -0.12710      0.04131 *
 * O              38     -0.01535     -0.02142      0.00674 *
 * O              39     -0.01803      0.03820      0.05953 *
 * O              40     -0.00678     -0.00835      0.00659 *
 * O              41     -0.00190     -0.00869      0.00026 *
 * O              42     -0.00958     -0.00852      0.01295 *
 * O              43     -0.12886      0.10863     -0.09829 *
 * O              44     -0.03933      0.01808     -0.00473 *
 * O              45     -0.02312      0.04883     -0.00478 *
 * O              46     -0.01361      0.09170      0.02899 *
 * O              47     -0.09530      0.03326      0.00906 *
 * O              48     -0.02600      0.02860     -0.00506 *
 * O              49     -0.00124      0.00988     -0.01766 *
 * O              50     -0.00793      0.00624      0.00100 *
 * O              51     -0.00667      0.00198     -0.00351 *
 * O              52     -0.00280      0.01631     -0.00319 *
 * O              53     -0.01702      0.01733     -0.00425 *
 * O              54     -0.02464      0.01413      0.00769 *
 * O              55      0.00690     -0.00362      0.02043 *
 * O              56      0.00655     -0.00508      0.01067 *
 * O              57     -0.00254     -0.02107      0.00389 *
 * O              58      0.02095     -0.03677      0.06776 *
 * O              59      0.03163      0.00395      0.03337 *
 * O              60      0.01006     -0.02082      0.02160 *
 * O              61      0.00857      0.00788     -0.00031 *
 * O              62      0.01315      0.01755      0.00066 *
 * O              63      0.00649      0.02865     -0.01180 *
 * O              64      0.00307      0.00641     -0.00226 *
 * O              65      0.00776     -0.00168      0.00794 *
 * O              66      0.00333      0.01104     -0.00737 *
 * O              67      0.02051      0.03350      0.00437 *
 * O              68      0.02834      0.02645      0.00657 *
 * O              69      0.10727      0.05465      0.09485 *
 * O              70      0.01888      0.11398     -0.00808 *
 * O              71      0.02189      0.03007     -0.00111 *
 * O              72      0.08048      0.02156     -0.01134 *
 * O              73      0.00072     -0.00864     -0.00163 *
 * O              74      0.00196     -0.01030      0.00416 *
 * O              75     -0.00320      0.00127      0.00253 *
 * O              76     -0.00351     -0.00124      0.01024 *
 * O              77      0.00115     -0.00330      0.00710 *
 * O              78      0.00062     -0.00463      0.01123 *
 * O              79     -0.00638      0.00023      0.00086 *
 * O              80      0.02110      0.01742      0.00037 *
 * O              81     -0.00574      0.03563      0.00546 *
 * O              82     -0.01830      0.02123      0.00200 *
 * O              83      0.00373     -0.00034      0.00040 *
 * O              84      0.00822      0.02996     -0.00690 *
 * O              85     -0.00074      0.00714      0.00342 *
 * O              86      0.00411      0.00927      0.00904 *
 * O              87      0.00439      0.00990      0.02312 *
 * O              88     -0.01192      0.02820      0.02070 *
 * O              89      0.00744      0.01704      0.00971 *
 * O              90      0.01001      0.01634      0.02802 *
 * O              91      0.02728     -0.02700      0.00973 *
 * O              92     -0.00055     -0.01096      0.00365 *
 * O              93     -0.01729     -0.03435     -0.01328 *
 * O              94     -0.03701     -0.13304     -0.02427 *
 * O              95      0.00807     -0.01708     -0.00021 *
 * O              96     -0.01149     -0.00996     -0.00021 *
 * O              97      0.00144     -0.00688      0.00254 *
 * O              98     -0.00119      0.00390      0.00275 *
 * O              99     -0.00586      0.00727     -0.00487 *
 * O             100     -0.02516     -0.00244     -0.02209 *
 * O             101     -0.00120     -0.00723      0.00402 *
 * O             102     -0.01122      0.00747      0.00151 *
 * O             103      0.02148      0.01854     -0.01812 *
 * O             104      0.00530      0.00085     -0.00688 *
 * O             105      0.00815     -0.01959     -0.00851 *
 * O             106      0.01280     -0.00154     -0.02133 *
 * O             107      0.00235      0.00655     -0.00378 *
 * O             108      0.00094      0.00017     -0.00182 *
 * O             109     -0.00170     -0.01994     -0.00200 *
 * O             110      0.03583     -0.05274      0.06149 *
 * O             111      0.02997      0.00124      0.02920 *
 * O             112      0.00194     -0.00706      0.00567 *
 * O             113      0.00255     -0.02145     -0.01407 *
 * O             114      0.00378     -0.00482      0.01420 *
 * O             115      0.08737      0.01884     -0.01147 *
 * O             116      0.03094      0.10436     -0.02519 *
 * O             117      0.02182      0.03008      0.00510 *
 * O             118      0.03286      0.02761      0.00208 *
 * O             119      0.14216      0.05992      0.10812 *
 * O             120      0.01531      0.04355      0.00628 *
 * O             121      0.00645      0.00703     -0.01046 *
 * O             122      0.00103      0.00271     -0.01352 *
 * O             123      0.00606      0.00602      0.00515 *
 * O             124      0.01603      0.02018      0.00859 *
 * O             125      0.01113      0.02039     -0.01512 *
 * O             126      0.00917      0.00903      0.00055 *
 * O             127     -0.01315     -0.00783      0.00423 *
 * O             128     -0.03556     -0.12617      0.00654 *
 * O             129      0.00937     -0.01174     -0.00104 *
 * O             130     -0.00102     -0.01030     -0.00409 *
 * O             131     -0.01862     -0.02798     -0.01855 *
 * O             132      0.01264     -0.04787      0.01336 *
 * O             133      0.00065     -0.00019      0.00616 *
 * O             134      0.00561     -0.00349     -0.01074 *
 * O             135      0.00363      0.00747      0.00048 *
 * O             136      0.00166      0.00579      0.00288 *
 * O             137      0.00835     -0.02153     -0.00040 *
 * O             138      0.01850      0.01387     -0.00636 *
 * O             139     -0.00657      0.01450     -0.00782 *
 * O             140     -0.02171     -0.00005     -0.02390 *
 * O             141     -0.00641     -0.00520     -0.00965 *
 * O             142      0.00118      0.00393     -0.00222 *
 * O             143     -0.00527      0.00737     -0.01106 *
 * O             144     -0.00352     -0.00058     -0.00757 *
 * O             145      0.00503     -0.00378      0.00006 *
 * O             146     -0.00965     -0.00604      0.00882 *
 * O             147      0.00279      0.00091      0.00513 *
 * O             148      0.00749     -0.00150      0.00395 *
 * O             149     -0.00415      0.00394      0.00416 *
 * O             150     -0.00413     -0.00776      0.00850 *
 * O             151      0.00935      0.01672      0.02762 *
 * O             152     -0.01146      0.02405      0.01048 *
 * O             153      0.00045      0.01850      0.00111 *
 * O             154      0.00401      0.00936      0.00275 *
 * O             155      0.00191      0.00221      0.01440 *
 * O             156     -0.00136      0.00885     -0.00038 *
 * O             157      0.01048      0.03174     -0.00454 *
 * O             158     -0.01912      0.02177      0.00469 *
 * O             159      0.00262      0.00433      0.00394 *
 * O             160      0.02281      0.01956     -0.00357 *
 * O             161     -0.00691      0.03650      0.00161 *
 * O             162     -0.00762      0.00491     -0.00434 *
 * Al              1     -0.01043      0.05815      0.00541 *
 * Al              2      0.00231      0.86396     -0.41633 *
 * Al              3     -0.00708      0.05986     -0.00610 *
 * Al              4     -0.02155      0.86107      0.42362 *
 * Al              5      0.01191     -1.37493     -0.16203 *
 * Al              6     -0.00061     -0.00151      0.02386 *
 * Al              7     -0.00039     -0.02796      0.02542 *
 * Al              8      0.02369     -0.16419      0.23533 *
 * Al              9     -0.00287     -0.02697      0.02287 *
 * Al             10      0.06972     -0.16276      0.20162 *
 * Al             11     -0.01150     -0.60085     -0.06404 *
 * Al             12     -0.00168     -0.00515      0.02546 *
 * Al             13      0.43045      0.00977      0.14889 *
 * Al             14      0.01107      0.00840     -0.01412 *
 * Al             15      0.01421      0.00386     -0.01084 *
 * Al             16      0.19516      0.06223     -0.16676 *
 * Al             17     -0.01279      0.04571      0.03404 *
 * Al             18      0.02130     -0.03170      0.00603 *
 * Al             19      0.02852     -0.04099     -0.00198 *
 * Al             20      0.01087      0.00367      0.00360 *
 * Al             21      0.01988     -0.01769      0.02795 *
 * Al             22      0.04663     -0.07167     -0.03068 *
 * Al             23      0.01974     -0.02529     -0.03308 *
 * Al             24      0.05999     -0.06884      0.04386 *
 * Al             25      0.01749      0.00156     -0.01586 *
 * Al             26      0.18470      0.04747     -0.15953 *
 * Al             27      0.53316      0.11390      0.15403 *
 * Al             28      0.00881      0.01022     -0.01345 *
 * Al             29      0.01768     -0.01136     -0.02524 *
 * Al             30      0.06648     -0.08177      0.05862 *
 * Al             31      0.01266     -0.00848      0.02394 *
 * Al             32      0.04702     -0.05549     -0.03354 *
 * Al             33      0.02876     -0.04509     -0.00187 *
 * Al             34     -0.00089     -0.00385      0.01041 *
 * Al             35     -0.02004      0.04440      0.03742 *
 * Al             36      0.02341     -0.03545      0.00453 *
 * Al             37     -0.46297      0.00227     -0.06110 *
 * Al             38     -0.00849      0.01188     -0.01215 *
 * Al             39     -0.01936      0.00476     -0.00858 *
 * Al             40     -0.07369      0.04120     -0.04951 *
 * Al             41      0.02796      0.02951      0.02049 *
 * Al             42     -0.02194     -0.03211      0.00019 *
 * Al             43     -0.03002     -0.04088      0.00175 *
 * Al             44     -0.00768      0.00290      0.00462 *
 * Al             45     -0.02080     -0.02845      0.03747 *
 * Al             46     -0.04483     -0.06821     -0.03808 *
 * Al             47     -0.01537     -0.01764     -0.02244 *
 * Al             48     -0.06234     -0.06745      0.03177 *
 * Al             49     -0.01271     -0.01600     -0.06062 *
 * Al             50      0.00295      0.00650     -0.00159 *
 * Al             51      0.00218      0.00744      0.00024 *
 * Al             52      0.00040     -0.00204     -0.01836 *
 * Al             53      0.00000     -0.00399      0.00141 *
 * Al             54     -0.00380     -0.01843     -0.00533 *
 * Al             55      0.00056     -0.01025     -0.00320 *
 * Al             56      0.00448     -0.01478      0.00465 *
 * Al             57      0.00455     -0.08108     -0.00336 *
 * Al             58     -0.00178     -0.01269     -0.00637 *
 * Al             59      0.00195     -0.00438      0.00186 *
 * Al             60     -0.00574     -0.05169     -0.02841 *
 * Al             61     -0.00303      0.01209     -0.00134 *
 * Al             62     -0.01432      0.02971     -0.00331 *
 * Al             63     -0.01011      0.01113     -0.01002 *
[...]
             O 40  -- O 42                  -0.04        2.86651
             O 19  -- O 20                  -0.04        2.86651
             O 7   -- O 9                   -0.04        2.86652
             O 56  -- O 57                  -0.04        2.86652
             O 17  -- O 18                  -0.04        2.86653
             O 112 -- O 113                 -0.04        2.86653
             O 14  -- O 105                 -0.04        2.86924
             O 10  -- O 137                 -0.04        2.86925
             O 23  -- O 90                  -0.04        2.86925
             O 109 -- O 140                 -0.04        2.86925
             O 39  -- O 151                 -0.04        2.86926
             O 60  -- O 100                 -0.04        2.86926
             O 21  -- O 146                 -0.04        2.87071
             O 41  -- O 76                  -0.04        2.87071
             O 65  -- O 114                 -0.04        2.87072
             O 8   -- O 49                  -0.04        2.87072
             O 16  -- O 30                  -0.04        2.87072
             O 55  -- O 123                 -0.04        2.87072
             O 8   -- O 99                  -0.04        2.87161
             O 21  -- O 133                 -0.04        2.87161
             O 41  -- O 108                 -0.04        2.87162
             O 114 -- O 154                 -0.04        2.87162
             O 16  -- O 143                 -0.04        2.87162
             O 55  -- O 86                  -0.04        2.87162
             O 15  -- O 140                 -0.04        2.87169
             O 11  -- O 100                 -0.04        2.87169
             O 24  -- O 137                 -0.04        2.87169
             O 37  -- O 105                 -0.04        2.87170
             O 58  -- O 90                  -0.04        2.87170
             O 110 -- O 151                 -0.04        2.87170
             O 28  -- O 155                 -0.04        2.87292
             O 66  -- O 106                 -0.04        2.87292
             O 50  -- O 87                  -0.04        2.87292
             O 121 -- O 134                 -0.04        2.87293
             O 77  -- O 144                 -0.04        2.87293
             O 97  -- O 147                 -0.04        2.87294
             O 59  -- O 148                 -0.04        2.87335
             O 13  -- O 63                  -0.04        2.87335
             O 12  -- O 125                 -0.04        2.87335
             O 25  -- O 38                  -0.04        2.87336
             O 22  -- O 54                  -0.04        2.87336
             O 74  -- O 111                 -0.04        2.87336
             O 17  -- O 106                 -0.04        2.87345
             O 42  -- O 155                 -0.04        2.87345
             O 19  -- O 87                  -0.04        2.87345
             O 9   -- O 134                 -0.04        2.87345
             O 56  -- O 97                  -0.04        2.87346
             O 112 -- O 144                 -0.04        2.87346
             O 89  -- O 124                 -0.04        2.87379
             O 62  -- O 153                 -0.04        2.87380
             O 73  -- O 104                 -0.04        2.87380
             O 27  -- O 139                 -0.04        2.87380
             O 136 -- O 150                 -0.04        2.87380
             O 53  -- O 102                 -0.04        2.87380
             O 107 -- O 108                 -0.04        2.87384
             O 142 -- O 143                 -0.04        2.87385
             O 154 -- O 156                 -0.04        2.87385
             O 133 -- O 135                 -0.04        2.87385
             O 85  -- O 86                  -0.04        2.87385
             O 98  -- O 99                  -0.04        2.87385
             O 31  -- O 32                  -0.04        2.87401
             O 71  -- O 72                  -0.04        2.87403
             O 92  -- O 93                  -0.04        2.87403
             O 46  -- O 48                  -0.04        2.87403
             O 130 -- O 131                 -0.04        2.87403
             O 115 -- O 117                 -0.04        2.87403
             O 88  -- O 90                  -0.04        2.87470
             O 137 -- O 138                 -0.04        2.87470
             O 103 -- O 105                 -0.04        2.87470
             O 151 -- O 152                 -0.04        2.87470
             O 100 -- O 101                 -0.04        2.87471
             O 155 -- O 156                 -0.04        2.87471
             O 140 -- O 141                 -0.04        2.87471
             O 106 -- O 107                 -0.04        2.87471
             O 142 -- O 144                 -0.04        2.87471
             O 85  -- O 87                  -0.04        2.87471
             O 97  -- O 98                  -0.04        2.87472
             O 134 -- O 135                 -0.04        2.87472
             O 107 -- O 142                 -0.04        2.87501
             O 98  -- O 135                 -0.04        2.87501
             O 85  -- O 135                 -0.04        2.87501
             O 142 -- O 156                 -0.04        2.87501
             O 107 -- O 156                 -0.04        2.87502
             O 85  -- O 98                  -0.04        2.87502
             O 19  -- O 21                  -0.04        2.87531
             O 8   -- O 9                   -0.04        2.87531
             O 112 -- O 114                 -0.04        2.87532
             O 41  -- O 42                  -0.04        2.87532
             O 16  -- O 17                  -0.04        2.87532
             O 55  -- O 56                  -0.04        2.87532
             O 127 -- O 129                 -0.04        2.87554
             O 34  -- O 35                  -0.04        2.87555
             O 67  -- O 68                  -0.04        2.87555
             O 118 -- O 120                 -0.04        2.87555
             O 95  -- O 96                  -0.04        2.87555
             O 44  -- O 45                  -0.04        2.87555
             O 71  -- O 160                 -0.04        2.87569
             O 48  -- O 161                 -0.04        2.87569
             O 130 -- O 162                 -0.04        2.87570
             O 79  -- O 92                  -0.04        2.87570
             O 80  -- O 117                 -0.04        2.87570
             O 31  -- O 81                  -0.04        2.87570
             O 83  -- O 118                 -0.04        2.87580
             O 68  -- O 159                 -0.04        2.87580
             O 82  -- O 96                  -0.04        2.87580
             O 127 -- O 158                 -0.04        2.87580
             O 45  -- O 157                 -0.04        2.87580
             O 35  -- O 84                  -0.04        2.87581
             O 133 -- O 134                 -0.04        2.87586
             O 106 -- O 108                 -0.04        2.87587
             O 97  -- O 99                  -0.04        2.87587
             O 143 -- O 144                 -0.04        2.87587
             O 86  -- O 87                  -0.04        2.87587
             O 154 -- O 155                 -0.04        2.87588
             O 13  -- O 26                  -0.04        2.87611
             O 22  -- O 149                 -0.04        2.87611
             O 59  -- O 126                 -0.04        2.87611
             O 12  -- O 52                  -0.04        2.87611
             O 61  -- O 111                 -0.04        2.87612
             O 38  -- O 75                  -0.04        2.87612
             O 65  -- O 154                 -0.04        2.87631
             O 86  -- O 123                 -0.04        2.87632
             O 30  -- O 143                 -0.04        2.87632
             O 49  -- O 99                  -0.04        2.87633
             O 133 -- O 146                 -0.04        2.87633
             O 76  -- O 108                 -0.04        2.87633
             O 77  -- O 78                  -0.04        2.87683
             O 64  -- O 66                  -0.04        2.87683
             O 28  -- O 29                  -0.04        2.87683
             O 145 -- O 147                 -0.04        2.87684
             O 50  -- O 51                  -0.04        2.87684
             O 121 -- O 122                 -0.04        2.87684
             O 52  -- O 53                  -0.04        2.87689
             O 149 -- O 150                 -0.04        2.87689
             O 124 -- O 126                 -0.04        2.87689
             O 73  -- O 75                  -0.04        2.87690
             O 26  -- O 27                  -0.04        2.87690
             O 61  -- O 62                  -0.04        2.87690
             O 139 -- O 141                 -0.04        2.87707
             O 103 -- O 104                 -0.04        2.87708
             O 136 -- O 138                 -0.04        2.87708
             O 152 -- O 153                 -0.04        2.87708
             O 101 -- O 102                 -0.04        2.87709
             O 88  -- O 89                  -0.04        2.87709
             O 73  -- O 141                 -0.04        2.87721
             O 27  -- O 152                 -0.04        2.87721
             O 62  -- O 103                 -0.04        2.87721
             O 53  -- O 88                  -0.04        2.87721
             O 124 -- O 138                 -0.04        2.87722
             O 101 -- O 150                 -0.04        2.87722
             O 79  -- O 80                  -0.04        2.87731
             O 160 -- O 162                 -0.04        2.87731
             O 161 -- O 162                 -0.04        2.87731
             O 79  -- O 81                  -0.04        2.87731
             O 160 -- O 161                 -0.04        2.87731
             O 80  -- O 81                  -0.04        2.87731
             O 89  -- O 138                 -0.04        2.87771
             O 101 -- O 136                 -0.04        2.87771
             O 104 -- O 141                 -0.04        2.87771
             O 88  -- O 102                 -0.04        2.87771
             O 103 -- O 153                 -0.04        2.87772
             O 139 -- O 152                 -0.04        2.87772
             O 26  -- O 63                  -0.04        2.87802
             O 54  -- O 149                 -0.04        2.87803
             O 52  -- O 125                 -0.04        2.87803
             O 25  -- O 75                  -0.04        2.87803
             O 126 -- O 148                 -0.04        2.87803
             O 61  -- O 74                  -0.04        2.87803
             O 76  -- O 77                  -0.04        2.87825
             O 28  -- O 30                  -0.04        2.87825
             O 49  -- O 50                  -0.04        2.87825
             O 65  -- O 66                  -0.04        2.87825
             O 146 -- O 147                 -0.04        2.87825
             O 121 -- O 123                 -0.04        2.87826
             O 51  -- O 122                 -0.04        2.87841
             O 51  -- O 145                 -0.04        2.87841
             O 122 -- O 145                 -0.04        2.87842
             O 29  -- O 64                  -0.04        2.87842
             O 29  -- O 78                  -0.04        2.87842
             O 64  -- O 78                  -0.04        2.87842
             O 82  -- O 84                  -0.04        2.87891
             O 157 -- O 158                 -0.04        2.87891
             O 83  -- O 84                  -0.04        2.87891
             O 157 -- O 159                 -0.04        2.87891
             O 158 -- O 159                 -0.04        2.87891
             O 82  -- O 83                  -0.04        2.87891
             O 145 -- O 146                 -0.04        2.87910
             O 76  -- O 78                  -0.04        2.87910
             O 49  -- O 51                  -0.04        2.87910
             O 64  -- O 65                  -0.04        2.87910
             O 29  -- O 30                  -0.04        2.87911
             O 122 -- O 123                 -0.04        2.87911
             O 92  -- O 129                 -0.04        2.87967
             O 95  -- O 130                 -0.04        2.87968
             O 71  -- O 120                 -0.04        2.87968
             O 34  -- O 48                  -0.04        2.87968
             O 67  -- O 117                 -0.04        2.87969
             O 31  -- O 44                  -0.04        2.87969
             O 139 -- O 140                 -0.04        2.87976
             O 89  -- O 90                  -0.04        2.87976
             O 151 -- O 153                 -0.04        2.87976
             O 100 -- O 102                 -0.04        2.87977
             O 104 -- O 105                 -0.04        2.87977
             O 136 -- O 137                 -0.04        2.87977
             O 52  -- O 54                  -0.04        2.87987
             O 74  -- O 75                  -0.04        2.87988
             O 25  -- O 26                  -0.04        2.87988
             O 125 -- O 126                 -0.04        2.87988
             O 61  -- O 63                  -0.04        2.87988
             O 148 -- O 149                 -0.04        2.87988
             O 15  -- O 109                 -0.04        2.88019
             O 14  -- O 37                  -0.04        2.88019
             O 10  -- O 24                  -0.04        2.88019
             O 23  -- O 58                  -0.04        2.88019
             O 11  -- O 60                  -0.04        2.88019
             O 39  -- O 110                 -0.04        2.88020
             O 17  -- O 66                  -0.04        2.88026
             O 28  -- O 42                  -0.04        2.88026
             O 9   -- O 121                 -0.04        2.88026
             O 56  -- O 147                 -0.04        2.88026
             O 77  -- O 112                 -0.04        2.88026
             O 19  -- O 50                  -0.04        2.88027
             O 44  -- O 81                  -0.04        2.88032
             O 34  -- O 161                 -0.04        2.88032
             O 67  -- O 80                  -0.04        2.88032
             O 120 -- O 160                 -0.04        2.88032
             O 95  -- O 162                 -0.04        2.88033
             O 79  -- O 129                 -0.04        2.88033
             O 115 -- O 128                 -0.04        2.88034
             O 46  -- O 119                 -0.04        2.88034
             O 36  -- O 131                 -0.04        2.88034
             O 72  -- O 94                  -0.04        2.88035
             O 43  -- O 93                  -0.04        2.88035
             O 32  -- O 69                  -0.04        2.88035
             O 38  -- O 39                  -0.04        2.88060
             O 59  -- O 60                  -0.04        2.88060
             O 22  -- O 23                  -0.04        2.88060
             O 109 -- O 111                 -0.04        2.88060
             O 10  -- O 12                  -0.04        2.88060
             O 13  -- O 14                  -0.04        2.88061
             O 73  -- O 74                  -0.04        2.88097
             O 53  -- O 54                  -0.04        2.88097
             O 25  -- O 27                  -0.04        2.88098
             O 124 -- O 125                 -0.04        2.88098
             O 148 -- O 150                 -0.04        2.88098
             O 62  -- O 63                  -0.04        2.88098
             O 127 -- O 128                 -0.04        2.88259
             O 43  -- O 45                  -0.04        2.88259
             O 118 -- O 119                 -0.04        2.88259
             O 68  -- O 69                  -0.04        2.88259
             O 35  -- O 36                  -0.04        2.88260
             O 94  -- O 96                  -0.04        2.88260
             O 55  -- O 57                  -0.04        2.88271
             O 40  -- O 41                  -0.04        2.88271
             O 7   -- O 8                   -0.04        2.88272
             O 20  -- O 21                  -0.04        2.88272
             O 16  -- O 18                  -0.04        2.88272
             O 113 -- O 114                 -0.04        2.88273
             O 128 -- O 129                 -0.04        2.88283
             O 34  -- O 36                  -0.04        2.88283
             O 43  -- O 44                  -0.04        2.88283
             O 67  -- O 69                  -0.04        2.88283
             O 119 -- O 120                 -0.04        2.88283
             O 94  -- O 95                  -0.04        2.88284
             O 130 -- O 132                 -0.04        2.88377
             O 31  -- O 33                  -0.04        2.88378
             O 116 -- O 117                 -0.04        2.88378
             O 91  -- O 92                  -0.04        2.88378
             O 47  -- O 48                  -0.04        2.88378
             O 70  -- O 71                  -0.04        2.88378
             O 45  -- O 116                 -0.04        2.88379
             O 47  -- O 96                  -0.04        2.88379
             O 68  -- O 91                  -0.04        2.88379
             O 33  -- O 127                 -0.04        2.88379
             O 118 -- O 132                 -0.04        2.88379
             O 35  -- O 70                  -0.04        2.88379
              Li 1 -- O 43                  -0.17        2.88444
             O 18  -- O 40                  -0.04        2.89038
             O 18  -- O 113                 -0.04        2.89038
             O 20  -- O 57                  -0.04        2.89038
             O 7   -- O 57                  -0.04        2.89039
             O 40  -- O 113                 -0.04        2.89039
             O 7   -- O 20                  -0.04        2.89039
             O 83  -- O 132                 -0.04        2.89130
             O 47  -- O 82                  -0.04        2.89130
             O 33  -- O 158                 -0.04        2.89130
             O 91  -- O 159                 -0.04        2.89130
             O 70  -- O 84                  -0.04        2.89130
             O 116 -- O 157                 -0.04        2.89130
              Li 1 -- O 119                 -0.18        2.90442
             O 2   -- O 93                  -0.03        2.91111
             O 6   -- O 46                  -0.03        2.91112
             O 5   -- O 72                  -0.03        2.91113
             O 3   -- O 115                 -0.03        2.91113
             O 1   -- O 32                  -0.03        2.91113
             O 4   -- O 131                 -0.03        2.91115
======================================================================
 

Writing analysis data to al2o3_sc-3x3x3_site-0_dir-1_disp_-0.50000.castep_bin

Writing model to al2o3_sc-3x3x3_site-0_dir-1_disp_-0.50000.check
 
 A BibTeX formatted list of references used in this run has been written to 
 al2o3_sc-3x3x3_site-0_dir-1_disp_-0.50000.bib
 
Initialisation time =     10.75 s
Calculation time    =   1755.48 s
Finalisation time   =      2.92 s
Total time          =   1769.15 s
Peak Memory Use     = 5465888 kB
  
Overall parallel efficiency rating: Good (72%)                                  
  
Data was distributed by:-
G-vector (40-way); efficiency rating: Good (73%)                                
