 +-------------------------------------------------+
 |                                                 |
 |      CCC   AA    SSS  TTTTT  EEEEE  PPPP        |
 |     C     A  A  S       T    E      P   P       |
 |     C     AAAA   SS     T    EEE    PPPP        |
 |     C     A  A     S    T    E      P           |
 |      CCC  A  A  SSS     T    EEEEE  P           |
 |                                                 |
 +-------------------------------------------------+
 |                                                 |
 | Welcome to Academic Release CASTEP version 20.11|          
 | Ab Initio Total Energy Program                  |
 |                                                 |
 | Authors:                                        |
 | M. Segall, M. Probert, C. Pickard, P. Hasnip,   |
 | S. Clark, K. Refson, J. R. Yates, M. Payne      |
 |                                                 |
 | Contributors:                                   |
 | P. Lindan, P. Haynes, J. White, V. Milman,      |
 | N. Govind, M. Gibson, P. Tulip, V. Cocula,      |
 | B. Montanari, D. Quigley, M. Glover,            |
 | L. Bernasconi, A. Perlov, M. Plummer,           |
 | E. McNellis, J. Meyer, J. Gale, D. Jochym       |
 | J. Aarons, B. Walker, R. Gillen, D. Jones       |
 | T. Green, I. J. Bush, C. J. Armstrong,          |
 | E. J. Higgins, E. L. Brown, M. S. McFly,        |
 | J. Wilkins, B-C. Shih, P. J. P. Byrne,          |
 | R. J. Maurer, J. C. Womack, J. Dziedzic,        |
 | J. R. Kermode, A. Bartok-Partay                 |
 |                                                 |
 | Copyright (c) 2000 - 2020                       |
 |                                                 |
 |     Distributed under license from Cambridge    |
 |     Enterprise for academic use only.           |
 |                                                 |
 | Please cite                                     |
 |                                                 |
 |     "First principles methods using CASTEP"     |
 |                                                 |
 |         Zeitschrift fuer Kristallographie       |
 |           220(5-6) pp. 567-570 (2005)           |
 |                                                 |
 | S. J. Clark, M. D. Segall, C. J. Pickard,       |
 | P. J. Hasnip, M. J. Probert, K. Refson,         |
 | M. C. Payne                                     |
 |                                                 |
 |       in all publications arising from          |
 |              your use of CASTEP                 |
 |                                                 |
 +-------------------------------------------------+
 |                                                 |
 |              http://www.castep.org              |
 |                                                 |
 +-------------------------------------------------+
 
 
 
 Compiled for linux_x86_64_ifort on Fri, 22 Oct 2021 12:44:39 +0100
 from code version Version unavailable
 Compiler: Intel Fortran 19.1.0.166; Optimisation: fast
 MATHLIBS: Intel MKL(2020.0.0) (LAPACK version 3.7.0)
 FFT Lib : mkl
 Fundamental constants values: CODATA 2014
 
 Run started: Fri, 26 Nov 2021 02:36:11 +0000
 +-------------------------------------------------+
 |                                                 |
 |           N   N    M   M    RRRR                |
 |           NN  N    MM MM    R   R               |
 |           N N N    M M M    RRRR                |
 |           N  NN    M   M    R  R                |
 |           N   N    M   M    R   R               |
 |                                                 |
 +-------------------------------------------------+
 |                                                 |
 | Welcome to Materials Studio CASTEP-NMR          |
 |                                                 |
 | Authors:                                        |
 | J.R. Yates, C.J. Pickard, F. Mauri              |
 |                                                 |
 | Contributors:                                   |
 | T.F.G. Green, S.A. Joyce, R.T. Strong,          |
 | B-C. Shih                                       |
 |                                                 |
 | Copyright (c) 2004 - 2020                       |
 |                                                 |
 | Please cite the appropriate publications in all |
 | work arising from your use of CASTEP NMR.       |
 |                                                 |
 | For NMR Shielding Tensors cite:                 |
 |    "All-electron magnetic response with         |
 |    pseudopotentials: NMR chemical shifts",      |
 |    C. J. Pickard, F. Mauri;                     |
 |    Physical Review B63 245101 (2001), and       |
 |                                                 |
 |    "Calculation of NMR Chemical Shifts          |
 |    for extended systems using                   |
 |    Ultrasoft Pseudopotentials",                 |
 |    J. R. Yates, C. J. Pickard and F. Mauri      |
 |    Physical Review B76 024401 (2007)            |
 |                                                 |
 | For Electric Field Gradients cite:              |
 |   "Accurate First Principles Prediction of 17O  |
 |    NMR Parameters in SiO2: Assignment of the    |
 |    Zeolite Ferrierite Spectrum"                 |
 |    M. Profeta, F. Mauri and C. J. Pickard       |
 |    J. Amer. Chem. Soc. 125 541 (2003)           |
 |                                                 |
 | For Spin-Spin (J) Couplings cite:               |
 |   "A first principles theory of NMR J-coupling  |
 |   in solid-state systems"                       |
 |   S.A. Joyce, J.R. Yates, C.J. Pickard, F. Mauri|
 |   J. Chem. Phys. 127 204107 (2007)              |
 |                                                 |
 |   "Relativistic NMR J-coupling with ultrasoft   |
 |   pseudopotentials and the zeroth-order regular |
 |   approximation"                                |
 |   T.F.G. Green and J.R. Yates                   |
 |   J. Chem. Phys. 140 234106 (2014)              |
 |                                                 |
 +-------------------------------------------------+
 
 
 Atomic calculation performed for Li: 1s2 2s1
 
 Converged in 48 iterations to an ae energy of -201.033 eV
 
   ============================================================                
   | Pseudopotential Report - Date of generation 26-11-2021   |                
   ------------------------------------------------------------                
   | Element: Li Ionic charge:  3.00 Level of theory: PBESOL  |                
   | Atomic Solver: Koelling-Harmon                           |                
   |                                                          |                
   |               Reference Electronic Structure             |                
   |         Orbital         Occupation         Energy        |                
   |            1s              2.000           -1.888        |                
   |            2s              1.000           -0.104        |                
   |                                                          |                
   |                 Pseudopotential Definition               |                
   |        Beta     l      e      Rc     scheme   norm       |                
   |          1      0   -1.888   1.001     qc      0         |                
   |          2      0   -0.104   1.001     qc      0         |                
   |          3      0    0.250   1.001     qc      0         |                
   |         loc     1    0.000   1.001     pn      0         |                
   |                                                          |                
   | Augmentation charge Rinner = 0.699                       |                
   | No partial core correction                               |                
   ------------------------------------------------------------                
   | "1|1.0|14|16|18|10U:20(qc=7)"                            |                
   ------------------------------------------------------------                
   |      Author: Chris J. Pickard, Cambridge University      |                
   ============================================================                
 
 Atomic calculation performed for O: 1s2 2s2 2p4
 
 Converged in 57 iterations to an ae energy of -2034.019 eV
 
   ============================================================                
   | Pseudopotential Report - Date of generation 26-11-2021   |                
   ------------------------------------------------------------                
   | Element: O Ionic charge:  6.00 Level of theory: PBESOL   |                
   | Atomic Solver: Koelling-Harmon                           |                
   |                                                          |                
   |               Reference Electronic Structure             |                
   |         Orbital         Occupation         Energy        |                
   |            2s              2.000           -0.875        |                
   |            2p              4.000           -0.330        |                
   |                                                          |                
   |                 Pseudopotential Definition               |                
   |        Beta     l      e      Rc     scheme   norm       |                
   |          1      0   -0.875   1.100     qc      0         |                
   |          2      0    0.250   1.100     qc      0         |                
   |          3      1   -0.330   1.100     qc      0         |                
   |          4      1    0.250   1.100     qc      0         |                
   |         loc     2    0.000   1.100     pn      0         |                
   |                                                          |                
   | Augmentation charge Rinner = 0.769                       |                
   | Partial core correction Rc = 0.769                       |                
   ------------------------------------------------------------                
   | "2|1.1|17|20|23|20:21(qc=8)"                             |                
   ------------------------------------------------------------                
   |      Author: Chris J. Pickard, Cambridge University      |                
   ============================================================                
 
 Atomic calculation performed for Al: 1s2 2s2 2p6 3s2 3p1
 
 Converged in 55 iterations to an ae energy of -6590.489 eV
 
   ============================================================                
   | Pseudopotential Report - Date of generation 26-11-2021   |                
   ------------------------------------------------------------                
   | Element: Al Ionic charge:  3.00 Level of theory: PBESOL  |                
   | Atomic Solver: Koelling-Harmon                           |                
   |                                                          |                
   |               Reference Electronic Structure             |                
   |         Orbital         Occupation         Energy        |                
   |            3s              2.000           -0.284        |                
   |            3p              1.000           -0.099        |                
   |                                                          |                
   |                 Pseudopotential Definition               |                
   |        Beta     l      e      Rc     scheme   norm       |                
   |          1      0   -0.284   2.192     qc      0         |                
   |          2      0    0.250   2.192     qc      0         |                
   |          3      1   -0.099   2.192     qc      0         |                
   |          4      1    0.250   2.192     qc      0         |                
   |          5      2    0.000   2.000     qc      0         |                
   |          6      2    0.250   2.000     qc      0         |                
   |         loc     3    0.000   2.192     pn      0         |                
   |                                                          |                
   | Augmentation charge Rinner = 1.398                       |                
   | Partial core correction Rc = 1.398                       |                
   ------------------------------------------------------------                
   | "3|2.2|2.2|1.4|4|5|5|30:31:32U2U2"                       |                
   ------------------------------------------------------------                
   |      Author: Chris J. Pickard, Cambridge University      |                
   ============================================================                
 
 Pseudo atomic calculation performed for Li 1s2 2s1
 
 Converged in 22 iterations to a total energy of -198.8875 eV
 
 Pseudo atomic calculation performed for O 2s2 2p4
 
 Converged in 33 iterations to a total energy of -431.1291 eV
 
 Pseudo atomic calculation performed for Al 3s2 3p1
 
 Converged in 20 iterations to a total energy of -105.9172 eV
 Calculation parallelised over 40 processes.
 Data is distributed by G-vector(40-way)

 ************************************ Title ************************************
 

 ***************************** General Parameters ******************************
  
 output verbosity                               : normal  (1)
 write checkpoint data to                       : al2o3_sc-3x3x3_site-0_dir-1_disp_-0.10511.check
 type of calculation                            : Magnetic Resonance
 stress calculation                             : off
 density difference calculation                 : off
 electron localisation func (ELF) calculation   : off
 Hirshfeld analysis                             : off
 molecular orbital projected DOS                : off
 deltaSCF calculation                           : off
 unlimited duration calculation
 timing information                             : on
 memory usage estimate                          : on
 write extra output files                       : on
 write final potential to formatted file        : off
 write final density to formatted file          : off
 write BibTeX reference list                    : on
 write OTFG pseudopotential files               : on
 write electrostatic potential file             : on
 write bands file                               : on
 checkpoint writing                             : both castep_bin and check files
  
 output         length unit                     : A
 output           mass unit                     : amu
 output           time unit                     : ps
 output         charge unit                     : e
 output           spin unit                     : hbar/2
 output         energy unit                     : eV
 output          force unit                     : eV/A
 output       velocity unit                     : A/ps
 output       pressure unit                     : GPa
 output     inv_length unit                     : 1/A
 output      frequency unit                     : cm-1
 output force constant unit                     : eV/A**2
 output         volume unit                     : A**3
 output   IR intensity unit                     : (D/A)**2/amu
 output         dipole unit                     : D
 output         efield unit                     : eV/A/e
 output        entropy unit                     : J/mol/K
 output    efield chi2 unit                     : pm/V
  
 wavefunctions paging                           : none
 random number generator seed                   : randomised (23611809)
 data distribution                              : optimal for this architecture
 optimization strategy                          : maximize speed(+++)

 *********************** Exchange-Correlation Parameters ***********************
  
 using functional                               : PBE for solids (2008)
 relativistic treatment                         : Koelling-Harmon
 DFT+D: Semi-empirical dispersion correction    : off

 ************************* Pseudopotential Parameters **************************
  
 pseudopotential representation                 : reciprocal space
 <beta|phi> representation                      : reciprocal space
 spin-orbit coupling                            : off

 **************************** Basis Set Parameters *****************************
  
 plane wave basis set cut-off                   :   900.0000   eV
 size of standard grid                          :     1.7500
 size of   fine   gmax                          :    26.8966   1/A
 finite basis set correction                    : none

 **************************** Electronic Parameters ****************************
  
 number of  electrons                           :  1298.    
 net charge of system                           : +1.000    
 treating system as non-spin-polarized
 number of bands                                :        779

 ********************* Electronic Minimization Parameters **********************
  
 Method: Treating system as metallic with density mixing treatment of electrons,
         and number of  SD  steps               :          1
         and number of  CG  steps               :          4
  
 total energy / atom convergence tol.           : 0.1000E-07   eV
 eigen-energy convergence tolerance             : 0.4176E-08   eV
 max force / atom convergence tol.              : ignored
 convergence tolerance window                   :          3   cycles
 max. number of SCF cycles                      :         30
 number of fixed-spin iterations                :         10
 smearing scheme                                : Gaussian
 smearing width                                 : 0.2000       eV
 Fermi energy convergence tolerance             : 0.2721E-13   eV
 periodic dipole correction                     : NONE

 ************************** Density Mixing Parameters **************************
  
 density-mixing scheme                          : Broyden
 max. length of mixing history                  :         20
 charge density mixing amplitude                : 0.8000    
 cut-off energy for mixing                      :  900.0       eV

 *********************** Population Analysis Parameters ************************
  
 Population analysis with cutoff                :  3.000       A
 Population analysis output                     : summary and pdos components

 ************************ Magnetic Resonance Parameters ************************
  
 Magnetic Resonance Property                    : Electric Field Gradient
 band convergence tolerance                     : 0.1000E-08   eV

 *******************************************************************************
  
 
                           -------------------------------
                                      Unit Cell
                           -------------------------------
        Real Lattice(A)                      Reciprocal Lattice(1/A)
     7.1585490     4.1329960    13.0126620        0.438858935   0.253374959   0.160950498
    -7.1585410     4.1329870    13.0126610       -0.438859276   0.253375526   0.160950588
    -0.0000040    -8.2659800    13.0126600        0.000000307  -0.506750544   0.160950601
 
                       Lattice parameters(A)       Cell Angles
                    a =     15.416091          alpha =   55.337041
                    b =     15.416084          beta  =   55.337094
                    c =     15.416087          gamma =   55.337039
 
                       Current cell volume =          2309.971027       A**3
                                   density =             2.386545   AMU/A**3
                                           =             3.962951     g/cm^3
 
                           -------------------------------
                                     Cell Contents
                           -------------------------------
                         Total number of ions in cell =  271
                      Total number of species in cell =    3
                        Max number of any one species =  162
 
            xxxxxxxxxxxxxxxxxxxxxxxxxxxxxxxxxxxxxxxxxxxxxxxxxxxxxxxxxxxx
            x  Element    Atom        Fractional coordinates of atoms  x
            x            Number           u          v          w      x
            x----------------------------------------------------------x
            x  Li           1         0.162428   0.162428   0.175144   x 
            x  O            1         0.187106   0.310375   0.086735   x 
            x  O            2         0.310377   0.086734   0.187107   x 
            x  O            3         0.086735   0.187105   0.310375   x 
            x  O            4         0.022959   0.246597   0.146228   x 
            x  O            5         0.246599   0.146227   0.022958   x 
            x  O            6         0.146227   0.022956   0.246599   x 
            x  O            7         0.185326   0.315546   0.417885   x 
            x  O            8         0.315186   0.083194   0.519021   x 
            x  O            9         0.083474   0.185251   0.647701   x 
            x  O           10         0.019149   0.250269   0.480442   x 
            x  O           11         0.250069   0.149414   0.354557   x 
            x  O           12         0.148073   0.018363   0.583211   x 
            x  O           13         0.185260   0.314971   0.750122   x 
            x  O           14         0.314184   0.083065   0.852892   x 
            x  O           15         0.083265   0.183920   0.978776   x 
            x  O           16         0.018147   0.250140   0.814313   x 
            x  O           17         0.249859   0.148082   0.685632   x 
            x  O           18         0.148007   0.017787   0.915449   x 
            x  O           19         0.185251   0.647701   0.083474   x 
            x  O           20         0.315546   0.417885   0.185326   x 
            x  O           21         0.083194   0.519021   0.315186   x 
            x  O           22         0.018363   0.583211   0.148073   x 
            x  O           23         0.250268   0.480442   0.019149   x 
            x  O           24         0.149414   0.354557   0.250069   x 
            x  O           25         0.185312   0.648594   0.416424   x 
            x  O           26         0.314781   0.416865   0.518708   x 
            x  O           27         0.083259   0.518777   0.648193   x 
            x  O           28         0.018545   0.583508   0.481666   x 
            x  O           29         0.250096   0.481704   0.352163   x 
            x  O           30         0.148157   0.351999   0.583818   x 
            x  O           31         0.185219   0.648056   0.750005   x 
            x  O           32         0.314589   0.416859   0.852008   x 
            x  O           33         0.084058   0.517145   0.981889   x 
            x  O           34         0.018704   0.583083   0.815106   x 
            x  O           35         0.250038   0.481208   0.685549   x 
            x  O           36         0.148318   0.351133   0.917516   x 
            x  O           37         0.183919   0.978777   0.083265   x 
            x  O           38         0.314970   0.750123   0.185260   x 
            x  O           39         0.083065   0.852891   0.314184   x 
            x  O           40         0.017788   0.915448   0.148007   x 
            x  O           41         0.250140   0.814313   0.018147   x 
            x  O           42         0.148082   0.685632   0.249859   x 
            x  O           43         0.185015   0.982200   0.415817   x 
            x  O           44         0.314629   0.750250   0.518227   x 
            x  O           45         0.083295   0.852126   0.647784   x 
            x  O           46         0.018743   0.916475   0.481325   x 
            x  O           47         0.249275   0.816188   0.351444   x 
            x  O           48         0.148114   0.685277   0.583329   x 
            x  O           49         0.185176   0.981335   0.749516   x 
            x  O           50         0.314789   0.749826   0.851667   x 
            x  O           51         0.083237   0.851630   0.981170   x 
            x  O           52         0.018552   0.916468   0.814625   x 
            x  O           53         0.250074   0.814557   0.685141   x 
            x  O           54         0.148021   0.684740   0.916909   x 
            x  O           55         0.519020   0.315187   0.083194   x 
            x  O           56         0.647701   0.083474   0.185251   x 
            x  O           57         0.417885   0.185327   0.315546   x 
            x  O           58         0.354557   0.250069   0.149414   x 
            x  O           59         0.583211   0.148073   0.018363   x 
            x  O           60         0.480442   0.019149   0.250268   x 
            x  O           61         0.518708   0.314782   0.416865   x 
            x  O           62         0.648193   0.083259   0.518777   x 
            x  O           63         0.416424   0.185313   0.648594   x 
            x  O           64         0.352164   0.250097   0.481704   x 
            x  O           65         0.583818   0.148157   0.351999   x 
            x  O           66         0.481666   0.018545   0.583508   x 
            x  O           67         0.518227   0.314629   0.750250   x 
            x  O           68         0.647784   0.083295   0.852126   x 
            x  O           69         0.415817   0.185015   0.982200   x 
            x  O           70         0.351444   0.249275   0.816188   x 
            x  O           71         0.583329   0.148114   0.685277   x 
            x  O           72         0.481325   0.018743   0.916474   x 
            x  O           73         0.518777   0.648193   0.083259   x 
            x  O           74         0.648594   0.416425   0.185312   x 
            x  O           75         0.416865   0.518708   0.314781   x 
            x  O           76         0.351999   0.583818   0.148157   x 
            x  O           77         0.583508   0.481667   0.018545   x 
            x  O           78         0.481704   0.352164   0.250096   x 
            x  O           79         0.518571   0.648121   0.416608   x 
            x  O           80         0.648121   0.416608   0.518571   x 
            x  O           81         0.416608   0.518571   0.648121   x 
            x  O           82         0.351829   0.583474   0.481415   x 
            x  O           83         0.583474   0.481415   0.351829   x 
            x  O           84         0.481415   0.351829   0.583474   x 
            x  O           85         0.518612   0.648020   0.749944   x 
            x  O           86         0.647950   0.416790   0.851868   x 
            x  O           87         0.416653   0.518894   0.981381   x 
            x  O           88         0.351895   0.583126   0.814929   x 
            x  O           89         0.583344   0.481332   0.685180   x 
            x  O           90         0.481183   0.351790   0.916908   x 
            x  O           91         0.517145   0.981889   0.084058   x 
            x  O           92         0.648056   0.750004   0.185219   x 
            x  O           93         0.416859   0.852008   0.314590   x 
            x  O           94         0.351133   0.917517   0.148318   x 
            x  O           95         0.583083   0.815106   0.018704   x 
            x  O           96         0.481207   0.685549   0.250038   x 
            x  O           97         0.518893   0.981381   0.416653   x 
            x  O           98         0.648020   0.749944   0.518612   x 
            x  O           99         0.416790   0.851868   0.647950   x 
            x  O          100         0.351789   0.916908   0.481183   x 
            x  O          101         0.583126   0.814929   0.351895   x 
            x  O          102         0.481332   0.685180   0.583344   x 
            x  O          103         0.518404   0.981438   0.750207   x 
            x  O          104         0.648153   0.749990   0.852001   x 
            x  O          105         0.416425   0.852151   0.981544   x 
            x  O          106         0.351953   0.916681   0.814440   x 
            x  O          107         0.583389   0.814721   0.685314   x 
            x  O          108         0.481466   0.685384   0.916543   x 
            x  O          109         0.852892   0.314184   0.083065   x 
            x  O          110         0.978776   0.083265   0.183919   x 
            x  O          111         0.750122   0.185260   0.314970   x 
            x  O          112         0.685632   0.249859   0.148082   x 
            x  O          113         0.915449   0.148007   0.017787   x 
            x  O          114         0.814313   0.018147   0.250140   x 
            x  O          115         0.852009   0.314590   0.416858   x 
            x  O          116         0.981889   0.084058   0.517145   x 
            x  O          117         0.750005   0.185219   0.648056   x 
            x  O          118         0.685549   0.250038   0.481207   x 
            x  O          119         0.917516   0.148318   0.351133   x 
            x  O          120         0.815106   0.018704   0.583083   x 
            x  O          121         0.851667   0.314789   0.749825   x 
            x  O          122         0.981170   0.083237   0.851630   x 
            x  O          123         0.749515   0.185176   0.981335   x 
            x  O          124         0.685140   0.250074   0.814556   x 
            x  O          125         0.916909   0.148021   0.684739   x 
            x  O          126         0.814625   0.018552   0.916468   x 
            x  O          127         0.852126   0.647784   0.083295   x 
            x  O          128         0.982200   0.415817   0.185015   x 
            x  O          129         0.750250   0.518227   0.314628   x 
            x  O          130         0.685277   0.583329   0.148114   x 
            x  O          131         0.916475   0.481325   0.018743   x 
            x  O          132         0.816188   0.351445   0.249275   x 
            x  O          133         0.851868   0.647950   0.416790   x 
            x  O          134         0.981381   0.416653   0.518893   x 
            x  O          135         0.749944   0.518613   0.648020   x 
            x  O          136         0.685180   0.583344   0.481332   x 
            x  O          137         0.916908   0.481183   0.351789   x 
            x  O          138         0.814929   0.351896   0.583126   x 
            x  O          139         0.852001   0.648153   0.749990   x 
            x  O          140         0.981544   0.416425   0.852150   x 
            x  O          141         0.750207   0.518405   0.981438   x 
            x  O          142         0.685314   0.583390   0.814721   x 
            x  O          143         0.916543   0.481466   0.685383   x 
            x  O          144         0.814440   0.351953   0.916680   x 
            x  O          145         0.851630   0.981170   0.083237   x 
            x  O          146         0.981335   0.749516   0.185176   x 
            x  O          147         0.749826   0.851667   0.314789   x 
            x  O          148         0.684739   0.916909   0.148021   x 
            x  O          149         0.916468   0.814625   0.018552   x 
            x  O          150         0.814557   0.685140   0.250074   x 
            x  O          151         0.852150   0.981544   0.416425   x 
            x  O          152         0.981438   0.750207   0.518404   x 
            x  O          153         0.749990   0.852001   0.648153   x 
            x  O          154         0.685383   0.916544   0.481466   x 
            x  O          155         0.916681   0.814440   0.351953   x 
            x  O          156         0.814721   0.685314   0.583389   x 
            x  O          157         0.851918   0.981504   0.749859   x 
            x  O          158         0.981504   0.749859   0.851918   x 
            x  O          159         0.749859   0.851918   0.981504   x 
            x  O          160         0.685212   0.916725   0.814762   x 
            x  O          161         0.916725   0.814762   0.685212   x 
            x  O          162         0.814762   0.685212   0.916725   x 
            x  Al           1         0.046449   0.046449   0.046449   x 
            x  Al           2         0.221738   0.221740   0.221739   x 
            x  Al           3         0.286885   0.286885   0.286885   x 
            x  Al           4         0.111593   0.111595   0.111594   x 
            x  Al           5         0.048507   0.048111   0.384006   x 
            x  Al           6         0.216286   0.215669   0.550221   x 
            x  Al           7         0.284051   0.284386   0.617411   x 
            x  Al           8         0.117299   0.117009   0.451646   x 
            x  Al           9         0.049282   0.048947   0.715922   x 
            x  Al          10         0.216034   0.216324   0.881687   x 
            x  Al          11         0.284825   0.285222   0.949327   x 
            x  Al          12         0.117047   0.117665   0.783113   x 
            x  Al          13         0.048111   0.384005   0.048509   x 
            x  Al          14         0.215668   0.550221   0.216286   x 
            x  Al          15         0.284386   0.617412   0.284051   x 
            x  Al          16         0.117009   0.451646   0.117299   x 
            x  Al          17         0.048826   0.383647   0.383682   x 
            x  Al          18         0.215924   0.549391   0.549345   x 
            x  Al          19         0.284029   0.617399   0.617409   x 
            x  Al          20         0.117384   0.451231   0.451434   x 
            x  Al          21         0.049042   0.382849   0.715957   x 
            x  Al          22         0.216245   0.549605   0.882328   x 
            x  Al          23         0.284052   0.617481   0.950647   x 
            x  Al          24         0.117319   0.450917   0.783859   x 
            x  Al          25         0.048947   0.715922   0.049283   x 
            x  Al          26         0.216324   0.881687   0.216034   x 
            x  Al          27         0.285223   0.949326   0.284826   x 
            x  Al          28         0.117665   0.783113   0.117047   x 
            x  Al          29         0.049281   0.715853   0.382687   x 
            x  Al          30         0.216014   0.882417   0.549474   x 
            x  Al          31         0.284291   0.950484   0.617377   x 
            x  Al          32         0.117088   0.783728   0.451006   x 
            x  Al          33         0.049304   0.715935   0.715924   x 
            x  Al          34         0.215949   0.882103   0.881899   x 
            x  Al          35         0.284507   0.949687   0.949652   x 
            x  Al          36         0.117409   0.783943   0.783988   x 
            x  Al          37         0.384007   0.048507   0.048110   x 
            x  Al          38         0.550221   0.216286   0.215668   x 
            x  Al          39         0.617411   0.284051   0.284386   x 
            x  Al          40         0.451646   0.117300   0.117009   x 
            x  Al          41         0.383682   0.048826   0.383646   x 
            x  Al          42         0.549345   0.215924   0.549390   x 
            x  Al          43         0.617409   0.284029   0.617398   x 
            x  Al          44         0.451434   0.117384   0.451231   x 
            x  Al          45         0.382687   0.049281   0.715852   x 
            x  Al          46         0.549474   0.216014   0.882416   x 
            x  Al          47         0.617376   0.284292   0.950484   x 
            x  Al          48         0.451006   0.117088   0.783728   x 
            x  Al          49         0.383646   0.383682   0.048826   x 
            x  Al          50         0.549390   0.549345   0.215924   x 
            x  Al          51         0.617398   0.617409   0.284029   x 
            x  Al          52         0.451231   0.451435   0.117384   x 
            x  Al          53         0.382869   0.382869   0.382869   x 
            x  Al          54         0.549291   0.549291   0.549291   x 
            x  Al          55         0.617371   0.617371   0.617371   x 
            x  Al          56         0.450782   0.450782   0.450782   x 
            x  Al          57         0.382831   0.382756   0.715644   x 
            x  Al          58         0.549456   0.549492   0.882381   x 
            x  Al          59         0.617518   0.617445   0.950564   x 
            x  Al          60         0.450941   0.450800   0.783885   x 
            x  Al          61         0.382849   0.715957   0.049042   x 
            x  Al          62         0.549605   0.882327   0.216245   x 
            x  Al          63         0.617481   0.950646   0.284052   x 
            x  Al          64         0.450916   0.783860   0.117319   x 
            x  Al          65         0.382756   0.715644   0.382830   x 
            x  Al          66         0.549492   0.882381   0.549456   x 
            x  Al          67         0.617445   0.950564   0.617518   x 
            x  Al          68         0.450799   0.783886   0.450941   x 
            x  Al          69         0.382769   0.715816   0.715889   x 
            x  Al          70         0.549448   0.882393   0.882534   x 
            x  Al          71         0.617690   0.950503   0.950577   x 
            x  Al          72         0.450953   0.783878   0.783841   x 
            x  Al          73         0.715922   0.049282   0.048947   x 
            x  Al          74         0.881687   0.216034   0.216324   x 
            x  Al          75         0.949328   0.284825   0.285222   x 
            x  Al          76         0.783113   0.117047   0.117665   x 
            x  Al          77         0.715957   0.049042   0.382849   x 
            x  Al          78         0.882327   0.216245   0.549605   x 
            x  Al          79         0.950646   0.284053   0.617481   x 
            x  Al          80         0.783860   0.117319   0.450917   x 
            x  Al          81         0.715924   0.049304   0.715935   x 
            x  Al          82         0.881899   0.215950   0.882103   x 
            x  Al          83         0.949651   0.284508   0.949687   x 
            x  Al          84         0.783988   0.117409   0.783943   x 
            x  Al          85         0.715852   0.382687   0.049281   x 
            x  Al          86         0.882417   0.549474   0.216014   x 
            x  Al          87         0.950484   0.617377   0.284292   x 
            x  Al          88         0.783728   0.451006   0.117088   x 
            x  Al          89         0.715644   0.382831   0.382756   x 
            x  Al          90         0.882381   0.549456   0.549492   x 
            x  Al          91         0.950564   0.617518   0.617445   x 
            x  Al          92         0.783886   0.450941   0.450799   x 
            x  Al          93         0.715889   0.382769   0.715815   x 
            x  Al          94         0.882534   0.549448   0.882393   x 
            x  Al          95         0.950577   0.617689   0.950503   x 
            x  Al          96         0.783841   0.450953   0.783877   x 
            x  Al          97         0.715935   0.715924   0.049304   x 
            x  Al          98         0.882103   0.881899   0.215950   x 
            x  Al          99         0.949687   0.949651   0.284508   x 
            x  Al         100         0.783943   0.783988   0.117409   x 
            x  Al         101         0.715816   0.715888   0.382769   x 
            x  Al         102         0.882393   0.882534   0.549448   x 
            x  Al         103         0.950503   0.950577   0.617689   x 
            x  Al         104         0.783878   0.783841   0.450952   x 
            x  Al         105         0.715963   0.715963   0.715963   x 
            x  Al         106         0.882551   0.882551   0.882551   x 
            x  Al         107         0.950465   0.950465   0.950465   x 
            x  Al         108         0.784042   0.784042   0.784042   x 
            xxxxxxxxxxxxxxxxxxxxxxxxxxxxxxxxxxxxxxxxxxxxxxxxxxxxxxxxxxxx
 
 
                         No user defined ionic velocities
 
                           -------------------------------
                                   Details of Species
                           -------------------------------
 
                               Mass of species in AMU
                                    Li    6.9410000
                                    O   15.9994000
                                    Al   26.9815400
 
                          Electric Quadrupole Moment (Barn)
                                    Li    0.0326000  User Defined Isotope
                                    O   -0.0255800 Isotope 17
                                    Al    0.1466000 Isotope 27
 
                          Files used for pseudopotentials:
                                    Li 1|1.0|14|16|18|10U:20(qc=7)
                                    O 2|1.1|17|20|23|20:21(qc=8)
                                    Al 3|2.2|2.2|1.4|4|5|5|30:31:32U2U2
 
                           -------------------------------
                              k-Points For BZ Sampling
                           -------------------------------
                       MP grid size for SCF calculation is  1  1  1
                            with an offset of   0.000  0.000  0.000
                       Number of kpoints used =             1
 
                           -------------------------------
                               Symmetry and Constraints
                           -------------------------------
 
                      Maximum deviation from symmetry =  0.00000         ANG
 
                      Number of symmetry operations   =           1
                      Number of ionic constraints     =           3
                      Point group of crystal =     1: C1, 1, 1
                      Space group of crystal =     1: P1, P 1
 
             Set iprint > 1 for details on symmetry rotations/translations
 
                         Centre of mass is constrained
             Set iprint > 1 for details of linear ionic constraints
 
                         Number of cell constraints= 6
                         Cell constraints are:  0 0 0 0 0 0
 
                         External pressure/stress (GPa)
                          0.00000   0.00000   0.00000
                                    0.00000   0.00000
                                              0.00000
  
+---------------- MEMORY AND SCRATCH DISK ESTIMATES PER PROCESS --------------+
|                                                     Memory          Disk    |
| Baseline code, static data and system overhead     3753.0 MB         0.0 MB |
| BLAS internal memory storage                          0.0 MB         0.0 MB |
| Model and support data                              635.8 MB         0.0 MB |
| Electronic energy minimisation requirements         108.1 MB         0.0 MB |
| Force calculation requirements                        8.1 MB         0.0 MB |
|                                               ----------------------------- |
| Approx. total storage required per process         4496.8 MB         0.0 MB |
|                                                                             |
| Requirements will fluctuate during execution and may exceed these estimates |
+-----------------------------------------------------------------------------+
Calculating total energy with cut-off of  900.000 eV.
------------------------------------------------------------------------ <-- SCF
SCF loop      Energy           Fermi           Energy gain       Timer   <-- SCF
                               energy          per atom          (sec)   <-- SCF
------------------------------------------------------------------------ <-- SCF
Initial  -6.13245643E+004  0.00000000E+000                        13.63  <-- SCF
      1  -7.78539200E+004  8.45104197E+000   6.09939327E+001      50.21  <-- SCF
      2  -8.36662030E+004  8.50147970E+000   2.14475387E+001      79.55  <-- SCF
      3  -8.38197694E+004  8.53047131E+000   5.66665517E-001     107.95  <-- SCF
      4  -8.37048057E+004  1.00545503E+001  -4.24220441E-001     145.86  <-- SCF
      5  -8.36209570E+004  9.48152108E+000  -3.09404610E-001     183.65  <-- SCF
      6  -8.36212445E+004  9.52670475E+000   1.06067862E-003     223.14  <-- SCF
      7  -8.36213043E+004  9.55041024E+000   2.20984108E-004     259.68  <-- SCF
      8  -8.36213069E+004  9.55427017E+000   9.29436385E-006     297.93  <-- SCF
      9  -8.36213059E+004  9.55477042E+000  -3.45562852E-006     334.58  <-- SCF
     10  -8.36213059E+004  9.55539990E+000  -2.31145912E-007     367.09  <-- SCF
     11  -8.36213058E+004  9.55595904E+000  -2.91497501E-007     396.97  <-- SCF
     12  -8.36213058E+004  9.55596876E+000  -6.22066394E-008     422.64  <-- SCF
     13  -8.36213058E+004  9.55594618E+000  -2.33716389E-008     447.05  <-- SCF
     14  -8.36213058E+004  9.55597001E+000  -8.62694585E-009     472.81  <-- SCF
     15  -8.36213058E+004  9.55597726E+000   1.59523522E-009     495.37  <-- SCF
------------------------------------------------------------------------ <-- SCF
 
Final energy, E             =  -83621.30576001     eV
Final free energy (E-TS)    =  -83621.30576001     eV
(energies not corrected for finite basis set)
 
NB est. 0K energy (E-0.5TS)      =  -83621.30576001     eV
 

Writing analysis data to al2o3_sc-3x3x3_site-0_dir-1_disp_-0.10511.castep_bin

Writing model to al2o3_sc-3x3x3_site-0_dir-1_disp_-0.10511.check
 
  =====================================================================
  +       Calculation of Nuclear Magnetic Resonance Parameters        +
  + ================================================================= +
 
  Starting Calculation of Electric Field Gradient Tensors         |<-- EFG
  +---------------- MEMORY AND SCRATCH DISK ESTIMATES PER PROCESS --------------+
  |                                                     Memory          Disk    |
  | Model and support data                              664.5 MB         0.0 MB |
  | NMR EFG calculation requirements                    149.2 MB         0.0 MB |
  |                                               ----------------------------- |
  | Approx. total storage required per process          813.6 MB         0.0 MB |
  |                                                                             |
  | Requirements will fluctuate during execution and may exceed these estimates |
  +-----------------------------------------------------------------------------+
  Total Time for EFG Tensors                    1220.04 sec       |<-- EFG
 
 
  ===============================================================
  |                Electric Field Gradient Tensor               |
  |-------------------------------------------------------------|
  |     Nucleus                              EFG tensor         |
  |    Species            Ion             Cq(MHz)        Asym   |
  |    Li                 1             2.732E-01        0.03   |
  |    O                  1             2.082E+00        0.80   |
  |    O                  2             2.213E+00        0.68   |
  |    O                  3             2.096E+00        0.81   |
  |    O                  4             2.028E+00        0.84   |
  |    O                  5             2.171E+00        0.72   |
  |    O                  6             2.188E+00        0.73   |
  |    O                  7             2.117E+00        0.40   |
  |    O                  8             2.333E+00        0.50   |
  |    O                  9             2.260E+00        0.53   |
  |    O                 10             2.307E+00        0.52   |
  |    O                 11             2.459E+00        0.37   |
  |    O                 12             2.234E+00        0.50   |
  |    O                 13             2.230E+00        0.50   |
  |    O                 14             2.303E+00        0.52   |
  |    O                 15             2.445E+00        0.35   |
  |    O                 16             2.336E+00        0.50   |
  |    O                 17             2.261E+00        0.53   |
  |    O                 18             2.121E+00        0.40   |
  |    O                 19             2.260E+00        0.53   |
  |    O                 20             2.120E+00        0.40   |
  |    O                 21             2.335E+00        0.50   |
  |    O                 22             2.231E+00        0.50   |
  |    O                 23             2.303E+00        0.52   |
  |    O                 24             2.431E+00        0.35   |
  |    O                 25             2.217E+00        0.49   |
  |    O                 26             2.238E+00        0.49   |
  |    O                 27             2.251E+00        0.50   |
  |    O                 28             2.223E+00        0.50   |
  |    O                 29             2.229E+00        0.49   |
  |    O                 30             2.196E+00        0.44   |
  |    O                 31             2.241E+00        0.51   |
  |    O                 32             2.255E+00        0.49   |
  |    O                 33             2.293E+00        0.45   |
  |    O                 34             2.213E+00        0.51   |
  |    O                 35             2.264E+00        0.48   |
  |    O                 36             2.256E+00        0.53   |
  |    O                 37             2.473E+00        0.36   |
  |    O                 38             2.233E+00        0.50   |
  |    O                 39             2.307E+00        0.52   |
  |    O                 40             2.119E+00        0.40   |
  |    O                 41             2.334E+00        0.50   |
  |    O                 42             2.261E+00        0.53   |
  |    O                 43             2.280E+00        0.54   |
  |    O                 44             2.208E+00        0.52   |
  |    O                 45             2.267E+00        0.48   |
  |    O                 46             2.262E+00        0.48   |
  |    O                 47             2.297E+00        0.44   |
  |    O                 48             2.240E+00        0.51   |
  |    O                 49             2.197E+00        0.44   |
  |    O                 50             2.221E+00        0.50   |
  |    O                 51             2.229E+00        0.49   |
  |    O                 52             2.238E+00        0.49   |
  |    O                 53             2.251E+00        0.50   |
  |    O                 54             2.220E+00        0.49   |
  |    O                 55             2.335E+00        0.50   |
  |    O                 56             2.261E+00        0.53   |
  |    O                 57             2.120E+00        0.40   |
  |    O                 58             2.465E+00        0.35   |
  |    O                 59             2.231E+00        0.50   |
  |    O                 60             2.305E+00        0.52   |
  |    O                 61             2.238E+00        0.49   |
  |    O                 62             2.251E+00        0.50   |
  |    O                 63             2.220E+00        0.49   |
  |    O                 64             2.229E+00        0.49   |
  |    O                 65             2.197E+00        0.44   |
  |    O                 66             2.221E+00        0.50   |
  |    O                 67             2.213E+00        0.52   |
  |    O                 68             2.264E+00        0.48   |
  |    O                 69             2.265E+00        0.52   |
  |    O                 70             2.292E+00        0.45   |
  |    O                 71             2.241E+00        0.51   |
  |    O                 72             2.254E+00        0.49   |
  |    O                 73             2.251E+00        0.50   |
  |    O                 74             2.218E+00        0.49   |
  |    O                 75             2.238E+00        0.49   |
  |    O                 76             2.196E+00        0.44   |
  |    O                 77             2.222E+00        0.50   |
  |    O                 78             2.229E+00        0.49   |
  |    O                 79             2.239E+00        0.49   |
  |    O                 80             2.238E+00        0.50   |
  |    O                 81             2.238E+00        0.50   |
  |    O                 82             2.216E+00        0.50   |
  |    O                 83             2.217E+00        0.50   |
  |    O                 84             2.218E+00        0.50   |
  |    O                 85             2.236E+00        0.52   |
  |    O                 86             2.248E+00        0.51   |
  |    O                 87             2.238E+00        0.53   |
  |    O                 88             2.236E+00        0.48   |
  |    O                 89             2.235E+00        0.51   |
  |    O                 90             2.226E+00        0.54   |
  |    O                 91             2.294E+00        0.44   |
  |    O                 92             2.241E+00        0.51   |
  |    O                 93             2.257E+00        0.49   |
  |    O                 94             2.276E+00        0.52   |
  |    O                 95             2.210E+00        0.52   |
  |    O                 96             2.266E+00        0.48   |
  |    O                 97             2.237E+00        0.53   |
  |    O                 98             2.236E+00        0.52   |
  |    O                 99             2.249E+00        0.51   |
  |    O                100             2.220E+00        0.54   |
  |    O                101             2.237E+00        0.48   |
  |    O                102             2.237E+00        0.50   |
  |    O                103             2.236E+00        0.48   |
  |    O                104             2.236E+00        0.50   |
  |    O                105             2.223E+00        0.54   |
  |    O                106             2.237E+00        0.53   |
  |    O                107             2.236E+00        0.52   |
  |    O                108             2.249E+00        0.51   |
  |    O                109             2.305E+00        0.52   |
  |    O                110             2.438E+00        0.36   |
  |    O                111             2.234E+00        0.50   |
  |    O                112             2.260E+00        0.53   |
  |    O                113             2.118E+00        0.40   |
  |    O                114             2.334E+00        0.50   |
  |    O                115             2.263E+00        0.48   |
  |    O                116             2.298E+00        0.44   |
  |    O                117             2.240E+00        0.51   |
  |    O                118             2.266E+00        0.48   |
  |    O                119             2.271E+00        0.55   |
  |    O                120             2.208E+00        0.52   |
  |    O                121             2.223E+00        0.50   |
  |    O                122             2.229E+00        0.49   |
  |    O                123             2.196E+00        0.44   |
  |    O                124             2.251E+00        0.50   |
  |    O                125             2.217E+00        0.49   |
  |    O                126             2.238E+00        0.49   |
  |    O                127             2.264E+00        0.48   |
  |    O                128             2.259E+00        0.55   |
  |    O                129             2.211E+00        0.51   |
  |    O                130             2.240E+00        0.51   |
  |    O                131             2.260E+00        0.48   |
  |    O                132             2.296E+00        0.44   |
  |    O                133             2.248E+00        0.51   |
  |    O                134             2.239E+00        0.53   |
  |    O                135             2.235E+00        0.52   |
  |    O                136             2.236E+00        0.51   |
  |    O                137             2.224E+00        0.54   |
  |    O                138             2.238E+00        0.48   |
  |    O                139             2.235E+00        0.51   |
  |    O                140             2.227E+00        0.54   |
  |    O                141             2.237E+00        0.48   |
  |    O                142             2.236E+00        0.52   |
  |    O                143             2.248E+00        0.51   |
  |    O                144             2.239E+00        0.53   |
  |    O                145             2.229E+00        0.49   |
  |    O                146             2.196E+00        0.44   |
  |    O                147             2.222E+00        0.50   |
  |    O                148             2.219E+00        0.49   |
  |    O                149             2.238E+00        0.49   |
  |    O                150             2.251E+00        0.50   |
  |    O                151             2.220E+00        0.54   |
  |    O                152             2.238E+00        0.48   |
  |    O                153             2.237E+00        0.51   |
  |    O                154             2.248E+00        0.51   |
  |    O                155             2.239E+00        0.53   |
  |    O                156             2.235E+00        0.52   |
  |    O                157             2.216E+00        0.50   |
  |    O                158             2.218E+00        0.50   |
  |    O                159             2.217E+00        0.50   |
  |    O                160             2.238E+00        0.50   |
  |    O                161             2.239E+00        0.49   |
  |    O                162             2.238E+00        0.50   |
  |    Al                 1             4.953E+00        0.00   |
  |    Al                 2            -2.446E+00        0.09   |
  |    Al                 3             4.954E+00        0.00   |
  |    Al                 4            -2.446E+00        0.09   |
  |    Al                 5             2.893E+00        0.48   |
  |    Al                 6             2.241E+00        0.12   |
  |    Al                 7             2.298E+00        0.03   |
  |    Al                 8             2.504E+00        0.48   |
  |    Al                 9             2.292E+00        0.04   |
  |    Al                10             2.436E+00        0.52   |
  |    Al                11             2.818E+00        0.45   |
  |    Al                12             2.245E+00        0.12   |
  |    Al                13             2.811E+00        0.49   |
  |    Al                14             2.245E+00        0.12   |
  |    Al                15             2.294E+00        0.04   |
  |    Al                16             2.423E+00        0.51   |
  |    Al                17             2.089E+00        0.21   |
  |    Al                18             2.378E+00        0.14   |
  |    Al                19             2.359E+00        0.08   |
  |    Al                20             2.588E+00        0.31   |
  |    Al                21             2.367E+00        0.20   |
  |    Al                22             2.182E+00        0.23   |
  |    Al                23             2.410E+00        0.05   |
  |    Al                24             2.239E+00        0.43   |
  |    Al                25             2.296E+00        0.04   |
  |    Al                26             2.523E+00        0.48   |
  |    Al                27             2.898E+00        0.44   |
  |    Al                28             2.242E+00        0.12   |
  |    Al                29             2.419E+00        0.06   |
  |    Al                30             2.246E+00        0.46   |
  |    Al                31             2.372E+00        0.20   |
  |    Al                32             2.176E+00        0.23   |
  |    Al                33             2.360E+00        0.07   |
  |    Al                34             2.587E+00        0.31   |
  |    Al                35             2.093E+00        0.23   |
  |    Al                36             2.381E+00        0.14   |
  |    Al                37             2.858E+00        0.43   |
  |    Al                38             2.244E+00        0.12   |
  |    Al                39             2.293E+00        0.04   |
  |    Al                40             2.485E+00        0.50   |
  |    Al                41             2.086E+00        0.23   |
  |    Al                42             2.380E+00        0.14   |
  |    Al                43             2.359E+00        0.07   |
  |    Al                44             2.588E+00        0.31   |
  |    Al                45             2.410E+00        0.05   |
  |    Al                46             2.240E+00        0.43   |
  |    Al                47             2.368E+00        0.20   |
  |    Al                48             2.181E+00        0.22   |
  |    Al                49             2.099E+00        0.22   |
  |    Al                50             2.380E+00        0.14   |
  |    Al                51             2.360E+00        0.08   |
  |    Al                52             2.586E+00        0.31   |
  |    Al                53             2.202E+00        0.00   |
  |    Al                54             2.276E+00        0.00   |
  |    Al                55             2.345E+00        0.00   |
  |    Al                56             2.326E+00        0.00   |
  |    Al                57             2.406E+00        0.41   |
  |    Al                58             2.269E+00        0.06   |
  |    Al                59             2.267E+00        0.13   |
  |    Al                60             2.412E+00        0.09   |
  |    Al                61             2.371E+00        0.20   |
  |    Al                62             2.178E+00        0.22   |
  |    Al                63             2.414E+00        0.06   |
  |    Al                64             2.244E+00        0.45   |
  |    Al                65             2.416E+00        0.42   |
  |    Al                66             2.267E+00        0.06   |
  |    Al                67             2.267E+00        0.12   |
  |    Al                68             2.416E+00        0.09   |
  |    Al                69             2.267E+00        0.13   |
  |    Al                70             2.412E+00        0.09   |
  |    Al                71             2.411E+00        0.42   |
  |    Al                72             2.269E+00        0.06   |
  |    Al                73             2.297E+00        0.03   |
  |    Al                74             2.454E+00        0.50   |
  |    Al                75             2.846E+00        0.50   |
  |    Al                76             2.243E+00        0.12   |
  |    Al                77             2.371E+00        0.19   |
  |    Al                78             2.178E+00        0.24   |
  |    Al                79             2.420E+00        0.06   |
  |    Al                80             2.245E+00        0.46   |
  |    Al                81             2.360E+00        0.08   |
  |    Al                82             2.586E+00        0.31   |
  |    Al                83             2.097E+00        0.21   |
  |    Al                84             2.379E+00        0.14   |
  |    Al                85             2.415E+00        0.06   |
  |    Al                86             2.240E+00        0.44   |
  |    Al                87             2.369E+00        0.19   |
  |    Al                88             2.180E+00        0.24   |
  |    Al                89             2.412E+00        0.42   |
  |    Al                90             2.267E+00        0.07   |
  |    Al                91             2.268E+00        0.13   |
  |    Al                92             2.417E+00        0.09   |
  |    Al                93             2.267E+00        0.13   |
  |    Al                94             2.414E+00        0.09   |
  |    Al                95             2.407E+00        0.41   |
  |    Al                96             2.268E+00        0.06   |
  |    Al                97             2.359E+00        0.07   |
  |    Al                98             2.589E+00        0.31   |
  |    Al                99             2.085E+00        0.22   |
  |    Al               100             2.379E+00        0.14   |
  |    Al               101             2.267E+00        0.13   |
  |    Al               102             2.417E+00        0.09   |
  |    Al               103             2.416E+00        0.42   |
  |    Al               104             2.266E+00        0.06   |
  |    Al               105             2.345E+00        0.00   |
  |    Al               106             2.326E+00        0.00   |
  |    Al               107             2.203E+00        0.00   |
  |    Al               108             2.276E+00        0.00   |
  ===============================================================
 
 ************************** Forces **************************
 *                                                          *
 *               Cartesian components (eV/A)                *
 * -------------------------------------------------------- *
 *                         x            y            z      *
 *                                                          *
 * Li              1      0.00121      0.54905     -0.00160 *
 * O               1     -0.01617     -0.07604      0.00245 *
 * O               2     -0.00134     -0.09279     -0.01243 *
 * O               3     -0.03949     -0.13569      0.05568 *
 * O               4     -0.00464     -0.08588     -0.00854 *
 * O               5      0.00172     -0.06579      0.00451 *
 * O               6      0.01560     -0.13751     -0.03927 *
 * O               7      0.00315     -0.00021      0.00509 *
 * O               8     -0.00150     -0.00058     -0.00225 *
 * O               9     -0.00163     -0.00024     -0.00332 *
 * O              10      0.01185      0.00763     -0.01473 *
 * O              11     -0.01160     -0.01145     -0.02271 *
 * O              12     -0.00457      0.00508     -0.00508 *
 * O              13     -0.00023      0.00929     -0.01373 *
 * O              14      0.00907      0.00738     -0.02147 *
 * O              15     -0.01367     -0.01553     -0.01882 *
 * O              16      0.00087      0.00070     -0.00685 *
 * O              17     -0.00029      0.00313     -0.00641 *
 * O              18     -0.00081     -0.00432     -0.00948 *
 * O              19     -0.00353      0.00006      0.00505 *
 * O              20     -0.00062     -0.00502      0.01075 *
 * O              21     -0.00036     -0.00042      0.00281 *
 * O              22     -0.00451     -0.00082      0.00743 *
 * O              23     -0.00492      0.00861      0.01923 *
 * O              24      0.00173     -0.02992      0.00423 *
 * O              25     -0.00068      0.00316      0.00380 *
 * O              26     -0.00048      0.00369     -0.00051 *
 * O              27     -0.00391      0.00613     -0.00518 *
 * O              28      0.00160      0.00224      0.00237 *
 * O              29      0.00030     -0.00183      0.00585 *
 * O              30     -0.00423      0.00329     -0.00242 *
 * O              31     -0.00490      0.00622      0.00265 *
 * O              32     -0.00310      0.01453      0.00730 *
 * O              33     -0.02391      0.00904     -0.00078 *
 * O              34     -0.00257      0.00476      0.00058 *
 * O              35     -0.00422      0.00907     -0.00309 *
 * O              36     -0.02555      0.02060     -0.02326 *
 * O              37     -0.00098     -0.02548      0.00890 *
 * O              38     -0.00284     -0.00679     -0.00167 *
 * O              39     -0.00396      0.01118      0.01263 *
 * O              40     -0.00223      0.00043     -0.00389 *
 * O              41     -0.00043     -0.00306     -0.00163 *
 * O              42     -0.00126     -0.00272      0.00189 *
 * O              43     -0.02455      0.02062     -0.01553 *
 * O              44     -0.01128      0.00352     -0.00249 *
 * O              45     -0.00516      0.01014      0.00023 *
 * O              46     -0.00127      0.02147      0.00399 *
 * O              47     -0.02062      0.00786      0.00155 *
 * O              48     -0.00587      0.00636     -0.00362 *
 * O              49      0.00216      0.00122     -0.00453 *
 * O              50     -0.00391      0.00023     -0.00119 *
 * O              51     -0.00234      0.00184     -0.00486 *
 * O              52     -0.00091      0.00316     -0.00063 *
 * O              53     -0.00335      0.00199      0.00174 *
 * O              54     -0.00797      0.00248      0.00023 *
 * O              55      0.00235     -0.00138      0.00585 *
 * O              56      0.00260     -0.00097      0.00323 *
 * O              57     -0.00277     -0.00391      0.00610 *
 * O              58      0.00345     -0.00910      0.01203 *
 * O              59      0.00912     -0.00014      0.01064 *
 * O              60      0.00005     -0.00318      0.00553 *
 * O              61      0.00153      0.00190     -0.00004 *
 * O              62      0.00137      0.00269     -0.00252 *
 * O              63     -0.00031      0.00828     -0.00118 *
 * O              64      0.00139      0.00294      0.00338 *
 * O              65      0.00191     -0.00278      0.00228 *
 * O              66     -0.00123      0.00383     -0.00019 *
 * O              67      0.00644      0.00455     -0.00029 *
 * O              68      0.00602      0.00505      0.00262 *
 * O              69      0.02508      0.01254      0.02536 *
 * O              70      0.00443      0.02477     -0.00154 *
 * O              71      0.00479      0.00589     -0.00257 *
 * O              72      0.01489      0.00378     -0.00356 *
 * O              73      0.00150     -0.00251     -0.00292 *
 * O              74     -0.00046     -0.00458      0.00227 *
 * O              75     -0.00079      0.00026      0.00073 *
 * O              76      0.00107      0.00151      0.00305 *
 * O              77     -0.00010     -0.00307      0.00286 *
 * O              78     -0.00166     -0.00104      0.00645 *
 * O              79     -0.00140     -0.00011      0.00130 *
 * O              80      0.00424      0.00412      0.00143 *
 * O              81     -0.00078      0.00790      0.00250 *
 * O              82     -0.00402      0.00599     -0.00045 *
 * O              83      0.00182     -0.00040     -0.00068 *
 * O              84      0.00060      0.00579     -0.00222 *
 * O              85     -0.00004      0.00003      0.00190 *
 * O              86      0.00123      0.00113      0.00424 *
 * O              87      0.00137      0.00357      0.00723 *
 * O              88     -0.00324      0.00643      0.00847 *
 * O              89      0.00469      0.00303      0.00465 *
 * O              90      0.00158      0.00244      0.00754 *
 * O              91      0.00527     -0.00643      0.00157 *
 * O              92     -0.00060     -0.00253      0.00317 *
 * O              93     -0.00608     -0.00426     -0.00183 *
 * O              94     -0.00658     -0.02758     -0.00687 *
 * O              95      0.00032     -0.00698      0.00144 *
 * O              96     -0.00333     -0.00205     -0.00120 *
 * O              97      0.00134     -0.00236      0.00253 *
 * O              98     -0.00137      0.00143      0.00159 *
 * O              99     -0.00213      0.00157      0.00123 *
 * O             100     -0.00563      0.00084     -0.00279 *
 * O             101      0.00029     -0.00095      0.00446 *
 * O             102     -0.00434     -0.00073      0.00282 *
 * O             103      0.00474      0.00460     -0.00754 *
 * O             104      0.00215     -0.00294     -0.00389 *
 * O             105      0.00076     -0.00446     -0.00309 *
 * O             106      0.00432     -0.00017     -0.00696 *
 * O             107     -0.00053      0.00063     -0.00176 *
 * O             108     -0.00030     -0.00087     -0.00257 *
 * O             109      0.00147     -0.00516     -0.00145 *
 * O             110      0.00919     -0.00974      0.01563 *
 * O             111      0.00350      0.00140      0.00226 *
 * O             112     -0.00100     -0.00132      0.00020 *
 * O             113      0.00257     -0.00516     -0.00846 *
 * O             114      0.00000     -0.00001      0.00131 *
 * O             115      0.02180      0.00516     -0.00047 *
 * O             116      0.00546      0.02131     -0.00423 *
 * O             117      0.00432      0.00679      0.00358 *
 * O             118      0.00652      0.00630     -0.00045 *
 * O             119      0.02655      0.01067      0.01759 *
 * O             120      0.00115      0.01138      0.00288 *
 * O             121      0.00326     -0.00016     -0.00356 *
 * O             122     -0.00065     -0.00096     -0.00694 *
 * O             123      0.00071      0.00403      0.00043 *
 * O             124      0.00460      0.00524      0.00459 *
 * O             125      0.00391      0.00232     -0.00448 *
 * O             126      0.00216      0.00175      0.00002 *
 * O             127     -0.00214     -0.00168      0.00198 *
 * O             128     -0.00827     -0.02826      0.00289 *
 * O             129      0.00353      0.00077     -0.00146 *
 * O             130      0.00015     -0.00181     -0.00334 *
 * O             131     -0.00135     -0.00913     -0.00529 *
 * O             132      0.00273     -0.00920      0.00351 *
 * O             133      0.00084      0.00069      0.00339 *
 * O             134     -0.00022     -0.00124     -0.00028 *
 * O             135      0.00201      0.00212      0.00105 *
 * O             136     -0.00046      0.00416      0.00300 *
 * O             137      0.00316     -0.00452      0.00122 *
 * O             138      0.00417      0.00234      0.00235 *
 * O             139      0.00064      0.00529     -0.00414 *
 * O             140     -0.00449     -0.00127     -0.00668 *
 * O             141     -0.00184     -0.00161     -0.00575 *
 * O             142      0.00150     -0.00008     -0.00163 *
 * O             143     -0.00011      0.00130     -0.00456 *
 * O             144     -0.00195      0.00082     -0.00376 *
 * O             145      0.00279     -0.00064     -0.00415 *
 * O             146     -0.00386     -0.00299      0.00096 *
 * O             147      0.00090      0.00272     -0.00058 *
 * O             148      0.00245      0.00220     -0.00091 *
 * O             149     -0.00096      0.00104      0.00075 *
 * O             150     -0.00239     -0.00097      0.00427 *
 * O             151      0.00285      0.00446      0.00411 *
 * O             152     -0.00160      0.00479     -0.00153 *
 * O             153     -0.00289      0.00426     -0.00226 *
 * O             154      0.00066      0.00277     -0.00188 *
 * O             155      0.00010     -0.00087      0.00076 *
 * O             156     -0.00018      0.00303     -0.00108 *
 * O             157      0.00320      0.00718     -0.00003 *
 * O             158     -0.00412      0.00318      0.00182 *
 * O             159     -0.00057      0.00131      0.00163 *
 * O             160      0.00524      0.00370     -0.00190 *
 * O             161     -0.00174      0.00721     -0.00090 *
 * O             162     -0.00157      0.00116     -0.00207 *
 * Al              1     -0.00189      0.01278      0.00583 *
 * Al              2     -0.00147      0.20029     -0.01949 *
 * Al              3     -0.00182      0.01289     -0.00627 *
 * Al              4     -0.00219      0.20029      0.02004 *
 * Al              5      0.00161     -0.18914     -0.02279 *
 * Al              6      0.00050      0.00094      0.00462 *
 * Al              7      0.00002     -0.00732      0.00797 *
 * Al              8      0.01151     -0.03272      0.04827 *
 * Al              9     -0.00060     -0.00450      0.00261 *
 * Al             10      0.01261     -0.03910      0.04370 *
 * Al             11     -0.00183     -0.16299     -0.01731 *
 * Al             12     -0.00074     -0.00253      0.00591 *
 * Al             13      0.10219      0.00693      0.03266 *
 * Al             14      0.00354      0.00075     -0.00348 *
 * Al             15      0.00217      0.00112     -0.00039 *
 * Al             16      0.04490      0.01094     -0.03423 *
 * Al             17      0.00079      0.01348      0.00668 *
 * Al             18      0.00410     -0.00702      0.00344 *
 * Al             19      0.00603     -0.00814     -0.00058 *
 * Al             20      0.00733      0.00361     -0.00139 *
 * Al             21      0.00788     -0.00749      0.00942 *
 * Al             22      0.01069     -0.01811     -0.00827 *
 * Al             23      0.00466     -0.00932     -0.01025 *
 * Al             24      0.01690     -0.01739      0.00991 *
 * Al             25      0.00488      0.00026     -0.00571 *
 * Al             26      0.03917      0.01447     -0.03716 *
 * Al             27      0.10571      0.01435      0.03479 *
 * Al             28      0.00100      0.00350     -0.00240 *
 * Al             29      0.00366      0.00135     -0.00260 *
 * Al             30      0.00953     -0.01380      0.01125 *
 * Al             31     -0.00100      0.00198      0.00174 *
 * Al             32      0.00907     -0.00971     -0.00501 *
 * Al             33      0.00617     -0.01035     -0.00012 *
 * Al             34     -0.00510     -0.00353      0.00469 *
 * Al             35     -0.00806      0.00669      0.00914 *
 * Al             36      0.00565     -0.00751     -0.00121 *
 * Al             37     -0.10841      0.00638     -0.01473 *
 * Al             38     -0.00337      0.00222     -0.00299 *
 * Al             39     -0.00302      0.00155      0.00052 *
 * Al             40     -0.01832      0.01187     -0.00851 *
 * Al             41      0.00173      0.00705      0.00380 *
 * Al             42     -0.00434     -0.00750      0.00225 *
 * Al             43     -0.00700     -0.00935      0.00006 *
 * Al             44     -0.00662      0.00349     -0.00128 *
 * Al             45     -0.00795     -0.00863      0.01134 *
 * Al             46     -0.01010     -0.01917     -0.00850 *
 * Al             47     -0.00477     -0.00873     -0.00814 *
 * Al             48     -0.01597     -0.01647      0.00839 *
 * Al             49     -0.00195     -0.00761     -0.01392 *
 * Al             50      0.00107      0.00186      0.00166 *
 * Al             51      0.00122      0.00110     -0.00013 *
 * Al             52      0.00003     -0.00618     -0.00651 *
 * Al             53     -0.00004     -0.00090      0.00193 *
 * Al             54     -0.00093     -0.00414     -0.00589 *
 * Al             55     -0.00000     -0.00233     -0.00375 *
 * Al             56      0.00102     -0.00341      0.00501 *
 * Al             57      0.00069     -0.02073     -0.00109 *
 * Al             58     -0.00055     -0.00593     -0.00098 *
 * Al             59      0.00073     -0.00539      0.00302 *
 * Al             60      0.00001     -0.01544     -0.00934 *
 * Al             61     -0.00557      0.00162      0.00272 *
 * Al             62     -0.00530      0.00724     -0.00193 *
 * Al             63     -0.00586      0.00406     -0.00485 *
 * Al             64     -0.00184      0.00273     -0.00160 *
[...]
             O 46  -- O 47                  -0.04        2.86470
             O 40  -- O 42                  -0.04        2.86651
             O 19  -- O 20                  -0.04        2.86651
             O 7   -- O 9                   -0.04        2.86652
             O 56  -- O 57                  -0.04        2.86652
             O 17  -- O 18                  -0.04        2.86653
             O 112 -- O 113                 -0.04        2.86653
             O 14  -- O 105                 -0.04        2.86924
             O 10  -- O 137                 -0.04        2.86925
             O 23  -- O 90                  -0.04        2.86925
             O 109 -- O 140                 -0.04        2.86925
             O 39  -- O 151                 -0.04        2.86926
             O 60  -- O 100                 -0.04        2.86926
             O 21  -- O 146                 -0.04        2.87071
             O 41  -- O 76                  -0.04        2.87071
             O 65  -- O 114                 -0.04        2.87072
             O 8   -- O 49                  -0.04        2.87072
             O 16  -- O 30                  -0.04        2.87072
             O 55  -- O 123                 -0.04        2.87072
             O 8   -- O 99                  -0.04        2.87161
             O 21  -- O 133                 -0.04        2.87161
             O 41  -- O 108                 -0.04        2.87162
             O 114 -- O 154                 -0.04        2.87162
             O 16  -- O 143                 -0.04        2.87162
             O 55  -- O 86                  -0.04        2.87162
             O 15  -- O 140                 -0.04        2.87169
             O 11  -- O 100                 -0.04        2.87169
             O 24  -- O 137                 -0.04        2.87169
             O 37  -- O 105                 -0.04        2.87170
             O 58  -- O 90                  -0.04        2.87170
             O 110 -- O 151                 -0.04        2.87170
             O 28  -- O 155                 -0.04        2.87292
             O 66  -- O 106                 -0.04        2.87292
             O 50  -- O 87                  -0.04        2.87292
             O 121 -- O 134                 -0.04        2.87293
             O 77  -- O 144                 -0.04        2.87293
             O 97  -- O 147                 -0.04        2.87294
             O 59  -- O 148                 -0.04        2.87335
             O 13  -- O 63                  -0.04        2.87335
             O 12  -- O 125                 -0.04        2.87335
             O 25  -- O 38                  -0.04        2.87336
             O 22  -- O 54                  -0.04        2.87336
             O 74  -- O 111                 -0.04        2.87336
             O 17  -- O 106                 -0.04        2.87345
             O 42  -- O 155                 -0.04        2.87345
             O 19  -- O 87                  -0.04        2.87345
             O 9   -- O 134                 -0.04        2.87345
             O 56  -- O 97                  -0.04        2.87346
             O 112 -- O 144                 -0.04        2.87346
             O 89  -- O 124                 -0.04        2.87379
             O 62  -- O 153                 -0.04        2.87380
             O 73  -- O 104                 -0.04        2.87380
             O 27  -- O 139                 -0.04        2.87380
             O 136 -- O 150                 -0.04        2.87380
             O 53  -- O 102                 -0.04        2.87380
             O 107 -- O 108                 -0.04        2.87384
             O 142 -- O 143                 -0.04        2.87385
             O 154 -- O 156                 -0.04        2.87385
             O 133 -- O 135                 -0.04        2.87385
             O 85  -- O 86                  -0.04        2.87385
             O 98  -- O 99                  -0.04        2.87385
             O 31  -- O 32                  -0.04        2.87401
             O 71  -- O 72                  -0.04        2.87403
             O 92  -- O 93                  -0.04        2.87403
             O 46  -- O 48                  -0.04        2.87403
             O 130 -- O 131                 -0.04        2.87403
             O 115 -- O 117                 -0.04        2.87403
             O 88  -- O 90                  -0.04        2.87470
             O 137 -- O 138                 -0.04        2.87470
             O 103 -- O 105                 -0.04        2.87470
             O 151 -- O 152                 -0.04        2.87470
             O 100 -- O 101                 -0.04        2.87471
             O 155 -- O 156                 -0.04        2.87471
             O 140 -- O 141                 -0.04        2.87471
             O 106 -- O 107                 -0.04        2.87471
             O 142 -- O 144                 -0.04        2.87471
             O 85  -- O 87                  -0.04        2.87471
             O 97  -- O 98                  -0.04        2.87472
             O 134 -- O 135                 -0.04        2.87472
             O 107 -- O 142                 -0.04        2.87501
             O 98  -- O 135                 -0.04        2.87501
             O 85  -- O 135                 -0.04        2.87501
             O 142 -- O 156                 -0.04        2.87501
             O 107 -- O 156                 -0.04        2.87502
             O 85  -- O 98                  -0.04        2.87502
             O 19  -- O 21                  -0.04        2.87531
             O 8   -- O 9                   -0.04        2.87531
             O 112 -- O 114                 -0.04        2.87532
             O 41  -- O 42                  -0.04        2.87532
             O 16  -- O 17                  -0.04        2.87532
             O 55  -- O 56                  -0.04        2.87532
             O 127 -- O 129                 -0.04        2.87554
             O 34  -- O 35                  -0.04        2.87555
             O 67  -- O 68                  -0.04        2.87555
             O 118 -- O 120                 -0.04        2.87555
             O 95  -- O 96                  -0.04        2.87555
             O 44  -- O 45                  -0.04        2.87555
             O 71  -- O 160                 -0.04        2.87569
             O 48  -- O 161                 -0.04        2.87569
             O 130 -- O 162                 -0.04        2.87570
             O 79  -- O 92                  -0.04        2.87570
             O 80  -- O 117                 -0.04        2.87570
             O 31  -- O 81                  -0.04        2.87570
             O 83  -- O 118                 -0.04        2.87580
             O 68  -- O 159                 -0.04        2.87580
             O 82  -- O 96                  -0.04        2.87580
             O 127 -- O 158                 -0.04        2.87580
             O 45  -- O 157                 -0.04        2.87580
             O 35  -- O 84                  -0.04        2.87581
             O 133 -- O 134                 -0.04        2.87586
             O 106 -- O 108                 -0.04        2.87587
             O 97  -- O 99                  -0.04        2.87587
             O 143 -- O 144                 -0.04        2.87587
             O 86  -- O 87                  -0.04        2.87587
             O 154 -- O 155                 -0.04        2.87588
             O 13  -- O 26                  -0.04        2.87611
             O 22  -- O 149                 -0.04        2.87611
             O 59  -- O 126                 -0.04        2.87611
             O 12  -- O 52                  -0.04        2.87611
             O 61  -- O 111                 -0.04        2.87612
             O 38  -- O 75                  -0.04        2.87612
             O 65  -- O 154                 -0.04        2.87631
             O 86  -- O 123                 -0.04        2.87632
             O 30  -- O 143                 -0.04        2.87632
             O 49  -- O 99                  -0.04        2.87633
             O 133 -- O 146                 -0.04        2.87633
             O 76  -- O 108                 -0.04        2.87633
             O 77  -- O 78                  -0.04        2.87683
             O 64  -- O 66                  -0.04        2.87683
             O 28  -- O 29                  -0.04        2.87683
             O 145 -- O 147                 -0.04        2.87684
             O 50  -- O 51                  -0.04        2.87684
             O 121 -- O 122                 -0.04        2.87684
             O 52  -- O 53                  -0.04        2.87689
             O 149 -- O 150                 -0.04        2.87689
             O 124 -- O 126                 -0.04        2.87689
             O 73  -- O 75                  -0.04        2.87690
             O 26  -- O 27                  -0.04        2.87690
             O 61  -- O 62                  -0.04        2.87690
             O 139 -- O 141                 -0.04        2.87707
             O 103 -- O 104                 -0.04        2.87708
             O 136 -- O 138                 -0.04        2.87708
             O 152 -- O 153                 -0.04        2.87708
             O 101 -- O 102                 -0.04        2.87709
             O 88  -- O 89                  -0.04        2.87709
             O 73  -- O 141                 -0.04        2.87721
             O 27  -- O 152                 -0.04        2.87721
             O 62  -- O 103                 -0.04        2.87721
             O 53  -- O 88                  -0.04        2.87721
             O 124 -- O 138                 -0.04        2.87722
             O 101 -- O 150                 -0.04        2.87722
             O 79  -- O 80                  -0.04        2.87731
             O 160 -- O 162                 -0.04        2.87731
             O 161 -- O 162                 -0.04        2.87731
             O 79  -- O 81                  -0.04        2.87731
             O 160 -- O 161                 -0.04        2.87731
             O 80  -- O 81                  -0.04        2.87731
             O 89  -- O 138                 -0.04        2.87771
             O 101 -- O 136                 -0.04        2.87771
             O 104 -- O 141                 -0.04        2.87771
             O 88  -- O 102                 -0.04        2.87771
             O 103 -- O 153                 -0.04        2.87772
             O 139 -- O 152                 -0.04        2.87772
             O 26  -- O 63                  -0.04        2.87802
             O 54  -- O 149                 -0.04        2.87803
             O 52  -- O 125                 -0.04        2.87803
             O 25  -- O 75                  -0.04        2.87803
             O 126 -- O 148                 -0.04        2.87803
             O 61  -- O 74                  -0.04        2.87803
             O 76  -- O 77                  -0.04        2.87825
             O 28  -- O 30                  -0.04        2.87825
             O 49  -- O 50                  -0.04        2.87825
             O 65  -- O 66                  -0.04        2.87825
             O 146 -- O 147                 -0.04        2.87825
             O 121 -- O 123                 -0.04        2.87826
             O 51  -- O 122                 -0.04        2.87841
             O 51  -- O 145                 -0.04        2.87841
             O 122 -- O 145                 -0.04        2.87842
             O 29  -- O 64                  -0.04        2.87842
             O 29  -- O 78                  -0.04        2.87842
             O 64  -- O 78                  -0.04        2.87842
             O 82  -- O 84                  -0.04        2.87891
             O 157 -- O 158                 -0.04        2.87891
             O 83  -- O 84                  -0.04        2.87891
             O 157 -- O 159                 -0.04        2.87891
             O 158 -- O 159                 -0.04        2.87891
             O 82  -- O 83                  -0.04        2.87891
             O 145 -- O 146                 -0.04        2.87910
             O 76  -- O 78                  -0.04        2.87910
             O 49  -- O 51                  -0.04        2.87910
             O 64  -- O 65                  -0.04        2.87910
             O 29  -- O 30                  -0.04        2.87911
             O 122 -- O 123                 -0.04        2.87911
             O 92  -- O 129                 -0.04        2.87967
             O 95  -- O 130                 -0.04        2.87968
             O 71  -- O 120                 -0.04        2.87968
             O 34  -- O 48                  -0.04        2.87968
             O 67  -- O 117                 -0.04        2.87969
             O 31  -- O 44                  -0.04        2.87969
             O 139 -- O 140                 -0.04        2.87976
             O 89  -- O 90                  -0.04        2.87976
             O 151 -- O 153                 -0.04        2.87976
             O 100 -- O 102                 -0.04        2.87977
             O 104 -- O 105                 -0.04        2.87977
             O 136 -- O 137                 -0.04        2.87977
             O 52  -- O 54                  -0.04        2.87987
             O 74  -- O 75                  -0.04        2.87988
             O 25  -- O 26                  -0.04        2.87988
             O 125 -- O 126                 -0.04        2.87988
             O 61  -- O 63                  -0.04        2.87988
             O 148 -- O 149                 -0.04        2.87988
             O 15  -- O 109                 -0.04        2.88019
             O 14  -- O 37                  -0.04        2.88019
             O 10  -- O 24                  -0.04        2.88019
             O 23  -- O 58                  -0.04        2.88019
             O 11  -- O 60                  -0.04        2.88019
             O 39  -- O 110                 -0.04        2.88020
             O 17  -- O 66                  -0.04        2.88026
             O 28  -- O 42                  -0.04        2.88026
             O 9   -- O 121                 -0.04        2.88026
             O 56  -- O 147                 -0.04        2.88026
             O 77  -- O 112                 -0.04        2.88026
             O 19  -- O 50                  -0.04        2.88027
             O 44  -- O 81                  -0.04        2.88032
             O 34  -- O 161                 -0.04        2.88032
             O 67  -- O 80                  -0.04        2.88032
             O 120 -- O 160                 -0.04        2.88032
             O 95  -- O 162                 -0.04        2.88033
             O 79  -- O 129                 -0.04        2.88033
             O 115 -- O 128                 -0.04        2.88034
             O 46  -- O 119                 -0.04        2.88034
             O 36  -- O 131                 -0.04        2.88034
             O 72  -- O 94                  -0.04        2.88035
             O 43  -- O 93                  -0.04        2.88035
             O 32  -- O 69                  -0.04        2.88035
             O 38  -- O 39                  -0.04        2.88060
             O 59  -- O 60                  -0.04        2.88060
             O 22  -- O 23                  -0.04        2.88060
             O 109 -- O 111                 -0.04        2.88060
             O 10  -- O 12                  -0.04        2.88060
             O 13  -- O 14                  -0.04        2.88061
             O 73  -- O 74                  -0.04        2.88097
             O 53  -- O 54                  -0.04        2.88097
             O 25  -- O 27                  -0.04        2.88098
             O 124 -- O 125                 -0.04        2.88098
             O 148 -- O 150                 -0.04        2.88098
             O 62  -- O 63                  -0.04        2.88098
             O 127 -- O 128                 -0.04        2.88259
             O 43  -- O 45                  -0.04        2.88259
             O 118 -- O 119                 -0.04        2.88259
             O 68  -- O 69                  -0.04        2.88259
             O 35  -- O 36                  -0.04        2.88260
             O 94  -- O 96                  -0.04        2.88260
             O 55  -- O 57                  -0.04        2.88271
             O 40  -- O 41                  -0.04        2.88271
             O 7   -- O 8                   -0.04        2.88272
             O 20  -- O 21                  -0.04        2.88272
             O 16  -- O 18                  -0.04        2.88272
             O 113 -- O 114                 -0.04        2.88273
             O 128 -- O 129                 -0.04        2.88283
             O 34  -- O 36                  -0.04        2.88283
             O 43  -- O 44                  -0.04        2.88283
             O 67  -- O 69                  -0.04        2.88283
             O 119 -- O 120                 -0.04        2.88283
             O 94  -- O 95                  -0.04        2.88284
             O 130 -- O 132                 -0.04        2.88377
             O 31  -- O 33                  -0.04        2.88378
             O 116 -- O 117                 -0.04        2.88378
             O 91  -- O 92                  -0.04        2.88378
             O 47  -- O 48                  -0.04        2.88378
             O 70  -- O 71                  -0.04        2.88378
             O 45  -- O 116                 -0.04        2.88379
             O 47  -- O 96                  -0.04        2.88379
             O 68  -- O 91                  -0.04        2.88379
             O 33  -- O 127                 -0.04        2.88379
             O 118 -- O 132                 -0.04        2.88379
             O 35  -- O 70                  -0.04        2.88379
             O 18  -- O 40                  -0.04        2.89038
             O 18  -- O 113                 -0.04        2.89038
             O 20  -- O 57                  -0.04        2.89038
             O 7   -- O 57                  -0.04        2.89039
             O 40  -- O 113                 -0.04        2.89039
             O 7   -- O 20                  -0.04        2.89039
              Li 1 -- Al 11                 -0.33        2.89099
             O 83  -- O 132                 -0.04        2.89130
             O 47  -- O 82                  -0.04        2.89130
             O 33  -- O 158                 -0.04        2.89130
             O 91  -- O 159                 -0.04        2.89130
             O 70  -- O 84                  -0.04        2.89130
             O 116 -- O 157                 -0.04        2.89130
             O 2   -- O 93                  -0.03        2.91111
             O 6   -- O 46                  -0.03        2.91112
             O 5   -- O 72                  -0.03        2.91113
             O 3   -- O 115                 -0.03        2.91113
             O 1   -- O 32                  -0.03        2.91113
             O 4   -- O 131                 -0.03        2.91115
======================================================================
 

Writing analysis data to al2o3_sc-3x3x3_site-0_dir-1_disp_-0.10511.castep_bin

Writing model to al2o3_sc-3x3x3_site-0_dir-1_disp_-0.10511.check
 
 A BibTeX formatted list of references used in this run has been written to 
 al2o3_sc-3x3x3_site-0_dir-1_disp_-0.10511.bib
 
Initialisation time =      9.55 s
Calculation time    =   1770.81 s
Finalisation time   =      3.07 s
Total time          =   1783.43 s
Peak Memory Use     = 5469528 kB
  
Overall parallel efficiency rating: Good (72%)                                  
  
Data was distributed by:-
G-vector (40-way); efficiency rating: Good (72%)                                
